 Gaussian 09, Revision C.01,
 Gaussian 09:  EM64L-G09RevC.01 23-Sep-2011

 -----------------------------------------------------------
 # B3LYP/6-31+G** test scrf=(pcm,solvent=water,smd,dovacuum)
 -----------------------------------------------------------

 99/5=1,9=1/99;
 -------
 comment
 -------
 Charge =  0 Multiplicity = 1

                         Standard orientation:
 ---------------------------------------------------------------------
 Center     Atomic      Atomic             Coordinates (Angstroms)
 Number     Number       Type             X           Y           Z
 ---------------------------------------------------------------------
      1          6           0        1.943357    0.576437    0.408333
      2          6           0        0.861629    1.072005   -0.567167
      3          6           0        0.757726   -1.140393   -0.554442
      4          6           0       -1.021448    0.068683    0.828510
      5          6           0       -0.606221   -1.265243    0.142057
      6          6           0       -0.493511    1.332653    0.097610
      7          8           0        0.746647   -0.053804   -1.456140
      8          8           0        1.775505   -0.855090    0.397912
      9          8           0       -1.371073    1.760468   -0.937732
     10          8           0       -0.526735    0.155528    2.163541
     11          8           0       -1.526629   -1.657618   -0.869114
     12          1           0        1.814758    0.952227    1.425322
     13          1           0        2.947126    0.821581    0.045341
     14          1           0        1.164914    1.937904   -1.158366
     15          1           0        1.004176   -2.051651   -1.106101
     16          1           0       -2.122695    0.111245    0.827268
     17          1           0       -0.523324   -2.043292    0.916861
     18          1           0       -0.372269    2.117624    0.858120
     19          1           0       -2.202552    2.039009   -0.521467
     20          1           0       -0.777246   -0.657568    2.631415
     21          1           0       -2.363809   -1.887811   -0.435537
 ---------------------------------------------------------------------

 SCF Done:  E(RB3LYP) =  -610.805236557     A.U. after   12 cycles

 The electronic state is 1-A.
 Alpha  occ. eigenvalues --  -19.18156 -19.17500 -19.17110 -19.16926 -19.16904
 Alpha  occ. eigenvalues --  -10.29262 -10.24903 -10.24748 -10.24713 -10.24620
 Alpha  occ. eigenvalues --  -10.23840  -1.11191  -1.04555  -1.03711  -1.03189
 Alpha  occ. eigenvalues --   -1.01035  -0.79450  -0.77378  -0.67875  -0.66188
 Alpha  occ. eigenvalues --   -0.62658  -0.58339  -0.54495  -0.53642  -0.51901
 Alpha  occ. eigenvalues --   -0.50367  -0.48581  -0.47478  -0.44364  -0.44088
 Alpha  occ. eigenvalues --   -0.43726  -0.41071  -0.40951  -0.38784  -0.38123
 Alpha  occ. eigenvalues --   -0.35659  -0.35042  -0.34508  -0.31502  -0.30195
 Alpha  occ. eigenvalues --   -0.28568  -0.27695  -0.26361
 Alpha virt. eigenvalues --    0.00706   0.01734   0.02135   0.02583   0.03453
 Alpha virt. eigenvalues --    0.04423   0.05459   0.05719   0.06148   0.08155
 Alpha virt. eigenvalues --    0.08346   0.09528   0.10006   0.10541   0.11674

 Mulliken atomic charges:
              1
     1  C   -0.169433
     2  C    0.376757
     3  C    0.017338
     4  C    0.181305
     5  C    0.067445
     6  C   -0.180906
     7  O   -0.422934
     8  O   -0.438260
     9  O   -0.623040
    10  O   -0.611481
    11  O   -0.607834
    12  H    0.175408
    13  H    0.164474
    14  H    0.173064
    15  H    0.168095
    16  H    0.155533
    17  H    0.166544
    18  H    0.169034
    19  H    0.412744
    20  H    0.409530
    21  H    0.416620
 Sum of Mulliken atomic charges =   0.00000

 Dipole moment (field-independent basis, Debye):
    X=             -3.2724    Y=              0.2341    Z=              4.9638  Tot=              5.9500
 Quadrupole moment (field-independent basis, Debye-Ang):
   XX=            -54.7843   YY=            -58.0703   ZZ=            -74.6305
   XY=              6.2377   XZ=             -7.6889   YZ=             -3.0652

 Normal termination of Gaussian 09 at Mon Apr 15 18:01:34 2019.
