 Gaussian 09, Revision C.01,
 Gaussian 09:  EM64L-G09RevC.01 23-Sep-2011

 ------------------------------------------------
 # mpw1pw91/6-31+g** nmr scrf=(pcm,solvent=water)
 ------------------------------------------------

 99/9=1/99;
 -------
 comment
 -------
 Charge =  0 Multiplicity = 1

                         Standard orientation:
 ---------------------------------------------------------------------
 Center     Atomic      Atomic             Coordinates (Angstroms)
 Number     Number       Type             X           Y           Z
 ---------------------------------------------------------------------
      1          6           0        1.970304    0.661430    0.074163
      2          6           0        0.659663    1.231490   -0.469392
      3          6           0        0.615454   -0.949677   -0.902820
      4          6           0       -0.733772   -0.244226    1.095497
      5          6           0       -0.621044   -1.285783   -0.042934
      6          6           0       -0.506833    1.186758    0.529576
      7          8           0        0.400135    0.294328   -1.535923
      8          8           0        1.771631   -0.769022   -0.055833
      9          8           0       -1.657706    1.602539   -0.219309
     10          8           0        0.147421   -0.543061    2.175563
     11          8           0       -1.779528   -1.302290   -0.864190
     12          1           0        2.167920    0.901609    1.120748
     13          1           0        2.819548    0.969971   -0.543042
     14          1           0        0.754037    2.224451   -0.911361
     15          1           0        0.822274   -1.703022   -1.666354
     16          1           0       -1.749725   -0.289649    1.504573
     17          1           0       -0.520501   -2.284535    0.393754
     18          1           0       -0.306436    1.874203    1.362097
     19          1           0       -2.395907    1.706883    0.403413
     20          1           0        0.966387   -0.883320    1.771248
     21          1           0       -1.915857   -0.376493   -1.142080
 ---------------------------------------------------------------------

 SCF Done:  E(RmPW1PW91) =  -610.648692161     A.U. after   12 cycles

      1  C    Isotropic =   129.3849   Anisotropy =    60.9003

      2  C    Isotropic =   117.5386   Anisotropy =    46.7345

      3  C    Isotropic =    90.8510   Anisotropy =    37.9448

      4  C    Isotropic =   121.1035   Anisotropy =    51.3917

      5  C    Isotropic =   125.1170   Anisotropy =    49.7572

      6  C    Isotropic =   122.3864   Anisotropy =    49.4301

      7  O    Isotropic =   256.6291   Anisotropy =    67.1574

      8  O    Isotropic =   262.7933   Anisotropy =   104.9679

      9  O    Isotropic =   284.8279   Anisotropy =    52.7757

     10  O    Isotropic =   287.6017   Anisotropy =    39.8017

     11  O    Isotropic =   287.6657   Anisotropy =    22.7822

     12  H    Isotropic =    27.3636   Anisotropy =     6.8989

     13  H    Isotropic =    27.6641   Anisotropy =    11.4266

     14  H    Isotropic =    26.9157   Anisotropy =     8.1094

     15  H    Isotropic =    25.9783   Anisotropy =     7.7237

     16  H    Isotropic =    27.9580   Anisotropy =     4.8596

     17  H    Isotropic =    28.0560   Anisotropy =     5.5898

     18  H    Isotropic =    27.6852   Anisotropy =     5.8808

     19  H    Isotropic =    29.6743   Anisotropy =    18.8182

     20  H    Isotropic =    28.1426   Anisotropy =    16.5581

     21  H    Isotropic =    28.2760   Anisotropy =    15.8577

 The electronic state is 1-A.
 Alpha  occ. eigenvalues --  -19.28108 -19.28101 -19.27286 -19.26096 -19.25999
 Alpha  occ. eigenvalues --  -10.36179 -10.32235 -10.31891 -10.31538 -10.31338
 Alpha  occ. eigenvalues --  -10.31335  -1.14926  -1.08054  -1.06805  -1.06467
 Alpha  occ. eigenvalues --   -1.04245  -0.82800  -0.80400  -0.70775  -0.69043
 Alpha  occ. eigenvalues --   -0.65578  -0.61458  -0.58816  -0.55595  -0.53545
 Alpha  occ. eigenvalues --   -0.52324  -0.49708  -0.49414  -0.47840  -0.46331
 Alpha  occ. eigenvalues --   -0.45482  -0.43695  -0.41980  -0.41016  -0.39711
 Alpha  occ. eigenvalues --   -0.38397  -0.37566  -0.35930  -0.33748  -0.33209
 Alpha  occ. eigenvalues --   -0.31225  -0.28741  -0.27576
 Alpha virt. eigenvalues --    0.00742   0.01332   0.02537   0.02739   0.03700
 Alpha virt. eigenvalues --    0.04346   0.05208   0.05359   0.05711   0.08157
 Alpha virt. eigenvalues --    0.08560   0.09705   0.09982   0.10202   0.10977

 Mulliken atomic charges:
              1
     1  C   -0.176824
     2  C    0.270590
     3  C   -0.002044
     4  C   -0.082436
     5  C    0.027228
     6  C   -0.131437
     7  O   -0.383350
     8  O   -0.443725
     9  O   -0.589316
    10  O   -0.516401
    11  O   -0.499566
    12  H    0.192193
    13  H    0.186308
    14  H    0.194618
    15  H    0.188753
    16  H    0.184121
    17  H    0.194138
    18  H    0.189926
    19  H    0.400752
    20  H    0.400305
    21  H    0.396164
 Sum of Mulliken atomic charges =   0.00000

 Dipole moment (field-independent basis, Debye):
    X=              1.1962    Y=              3.0260    Z=              1.5056  Tot=              3.5853
 Quadrupole moment (field-independent basis, Debye-Ang):
   XX=            -61.2128   YY=            -62.0549   ZZ=            -73.6635
   XY=             -1.8757   XZ=             -4.3596   YZ=              3.4732

 Normal termination of Gaussian 09 at Fri Apr 12 10:18:01 2019.
