 Gaussian 09, Revision C.01,
 Gaussian 09:  EM64L-G09RevC.01 23-Sep-2011

 ------------------------------------------------
 # mpw1pw91/6-31+g** nmr scrf=(pcm,solvent=water)
 ------------------------------------------------

 99/9=1/99;
 -------
 comment
 -------
 Charge =  0 Multiplicity = 1

                         Standard orientation:
 ---------------------------------------------------------------------
 Center     Atomic      Atomic             Coordinates (Angstroms)
 Number     Number       Type             X           Y           Z
 ---------------------------------------------------------------------
      1          6           0       -2.003381   -0.519938    0.073213
      2          6           0       -0.820165   -0.930320   -0.817336
      3          6           0       -0.618351    1.243666   -0.429314
      4          6           0        0.854639   -0.277078    0.993665
      5          6           0        0.653991    1.149883    0.432213
      6          6           0        0.460030   -1.339581   -0.066981
      7          8           0       -0.538582    0.313965   -1.495107
      8          8           0       -1.767013    0.882134    0.321889
      9          8           0        1.520317   -1.512858   -1.002749
     10          8           0        0.096214   -0.389849    2.194995
     11          8           0        1.726090    1.491307   -0.451776
     12          1           0       -2.040679   -1.056927    1.022400
     13          1           0       -2.955117   -0.630932   -0.457290
     14          1           0       -1.074624   -1.673774   -1.574788
     15          1           0       -0.741858    2.245853   -0.847956
     16          1           0        1.925687   -0.410782    1.205650
     17          1           0        0.580371    1.857219    1.267995
     18          1           0        0.315535   -2.308613    0.424469
     19          1           0        1.681288   -0.627178   -1.377720
     20          1           0        0.323844   -1.240221    2.604637
     21          1           0        2.528759    1.607969    0.081833
 ---------------------------------------------------------------------

 SCF Done:  E(RmPW1PW91) =  -610.646633401     A.U. after   12 cycles

      1  C    Isotropic =   129.9662   Anisotropy =    64.1794

      2  C    Isotropic =   117.1193   Anisotropy =    45.0918

      3  C    Isotropic =    93.0131   Anisotropy =    34.4584

      4  C    Isotropic =   120.1767   Anisotropy =    49.5332

      5  C    Isotropic =   123.9492   Anisotropy =    44.9960

      6  C    Isotropic =   122.9719   Anisotropy =    51.0417

      7  O    Isotropic =   255.7156   Anisotropy =    58.4074

      8  O    Isotropic =   265.7170   Anisotropy =   109.7334

      9  O    Isotropic =   284.7457   Anisotropy =    37.5333

     10  O    Isotropic =   285.8023   Anisotropy =    59.1810

     11  O    Isotropic =   288.6069   Anisotropy =    55.7383

     12  H    Isotropic =    27.1149   Anisotropy =     5.8487

     13  H    Isotropic =    27.6850   Anisotropy =    11.1165

     14  H    Isotropic =    27.0378   Anisotropy =     8.2894

     15  H    Isotropic =    26.0256   Anisotropy =     7.6228

     16  H    Isotropic =    27.7306   Anisotropy =     4.3486

     17  H    Isotropic =    27.8278   Anisotropy =     5.1932

     18  H    Isotropic =    28.2049   Anisotropy =     5.9026

     19  H    Isotropic =    28.2943   Anisotropy =    14.7058

     20  H    Isotropic =    29.9806   Anisotropy =    18.7376

     21  H    Isotropic =    29.8046   Anisotropy =    19.3537

 The electronic state is 1-A.
 Alpha  occ. eigenvalues --  -19.27577 -19.27097 -19.26695 -19.26472 -19.25856
 Alpha  occ. eigenvalues --  -10.35822 -10.31544 -10.31506 -10.31506 -10.31289
 Alpha  occ. eigenvalues --  -10.30382  -1.14300  -1.07980  -1.06784  -1.06395
 Alpha  occ. eigenvalues --   -1.03647  -0.81939  -0.80567  -0.70424  -0.68683
 Alpha  occ. eigenvalues --   -0.64993  -0.60446  -0.57679  -0.55849  -0.54169
 Alpha  occ. eigenvalues --   -0.51911  -0.49472  -0.49202  -0.46987  -0.46518
 Alpha  occ. eigenvalues --   -0.45096  -0.43395  -0.41369  -0.40623  -0.39122
 Alpha  occ. eigenvalues --   -0.38630  -0.36553  -0.36002  -0.32951  -0.32122
 Alpha  occ. eigenvalues --   -0.30171  -0.28445  -0.27944
 Alpha virt. eigenvalues --    0.00669   0.01268   0.02247   0.02660   0.03581
 Alpha virt. eigenvalues --    0.04351   0.05299   0.05441   0.06047   0.08032
 Alpha virt. eigenvalues --    0.08658   0.09334   0.10020   0.10162   0.11755

 Mulliken atomic charges:
              1
     1  C   -0.225806
     2  C    0.343839
     3  C   -0.077692
     4  C   -0.034291
     5  C    0.148085
     6  C   -0.247386
     7  O   -0.385574
     8  O   -0.356755
     9  O   -0.515217
    10  O   -0.539221
    11  O   -0.571298
    12  H    0.187683
    13  H    0.173918
    14  H    0.189855
    15  H    0.182777
    16  H    0.180367
    17  H    0.185826
    18  H    0.177713
    19  H    0.393453
    20  H    0.389497
    21  H    0.400226
 Sum of Mulliken atomic charges =   0.00000

 Dipole moment (field-independent basis, Debye):
    X=              1.1427    Y=             -1.6634    Z=              2.8756  Tot=              3.5131
 Quadrupole moment (field-independent basis, Debye-Ang):
   XX=            -61.7625   YY=            -61.0282   ZZ=            -68.7132
   XY=              9.4669   XZ=              7.7985   YZ=             -4.4269

 Normal termination of Gaussian 09 at Fri Apr 12 10:15:19 2019.
