 Gaussian 09, Revision C.01,
 Gaussian 09:  EM64L-G09RevC.01 23-Sep-2011

 ------------------------------------------------
 # mpw1pw91/6-31+g** nmr scrf=(pcm,solvent=water)
 ------------------------------------------------

 99/9=1/99;
 -------
 comment
 -------
 Charge =  0 Multiplicity = 1

                         Standard orientation:
 ---------------------------------------------------------------------
 Center     Atomic      Atomic             Coordinates (Angstroms)
 Number     Number       Type             X           Y           Z
 ---------------------------------------------------------------------
      1          6           0       -2.155410    0.465241   -0.656809
      2          6           0       -1.159026    0.967817    0.389584
      3          6           0       -0.887479   -1.227548    0.264377
      4          6           0        1.195840    0.144972    0.056057
      5          6           0        0.577287   -1.222534   -0.247615
      6          6           0        0.230010    1.301904   -0.206957
      7          8           0       -1.071934   -0.205452    1.229671
      8          8           0       -1.774462   -0.913541   -0.814024
      9          8           0        0.709384    2.497536    0.402493
     10          8           0        2.378767    0.400942   -0.694672
     11          8           0        1.398714   -2.177143    0.424049
     12          1           0       -2.082029    0.973180   -1.622042
     13          1           0       -3.185221    0.529772   -0.286551
     14          1           0       -1.522713    1.797466    0.996808
     15          1           0       -1.160332   -2.187782    0.711894
     16          1           0        1.419060    0.153800    1.131394
     17          1           0        0.570813   -1.404131   -1.329494
     18          1           0        0.145773    1.448275   -1.294553
     19          1           0        1.627661    2.602707    0.099013
     20          1           0        3.034532   -0.260376   -0.418629
     21          1           0        1.221365   -3.050752    0.040206
 ---------------------------------------------------------------------

 SCF Done:  E(RmPW1PW91) =  -610.645441759     A.U. after   12 cycles

      1  C    Isotropic =   126.4151   Anisotropy =    44.0626

      2  C    Isotropic =   116.5441   Anisotropy =    41.9430

      3  C    Isotropic =    89.7850   Anisotropy =    23.4359

      4  C    Isotropic =   118.6100   Anisotropy =    20.4680

      5  C    Isotropic =   116.9503   Anisotropy =    25.7758

      6  C    Isotropic =   119.4372   Anisotropy =    28.7322

      7  O    Isotropic =   246.5878   Anisotropy =    46.3201

      8  O    Isotropic =   259.6012   Anisotropy =   125.8533

      9  O    Isotropic =   292.2237   Anisotropy =    53.9447

     10  O    Isotropic =   306.6304   Anisotropy =    37.9270

     11  O    Isotropic =   294.7658   Anisotropy =    47.7338

     12  H    Isotropic =    27.7197   Anisotropy =     7.6209

     13  H    Isotropic =    27.8678   Anisotropy =    10.9758

     14  H    Isotropic =    27.1296   Anisotropy =     6.7110

     15  H    Isotropic =    26.3152   Anisotropy =     6.6333

     16  H    Isotropic =    28.0300   Anisotropy =     3.4892

     17  H    Isotropic =    28.2319   Anisotropy =     3.2048

     18  H    Isotropic =    27.9080   Anisotropy =     4.0042

     19  H    Isotropic =    29.0409   Anisotropy =    18.0706

     20  H    Isotropic =    29.1635   Anisotropy =    18.8515

     21  H    Isotropic =    29.4637   Anisotropy =    19.9018

 The electronic state is 1-A.
 Alpha  occ. eigenvalues --  -19.27831 -19.26949 -19.26836 -19.26625 -19.26308
 Alpha  occ. eigenvalues --  -10.35971 -10.32016 -10.31629 -10.31277 -10.31237
 Alpha  occ. eigenvalues --  -10.30690  -1.14332  -1.08508  -1.07090  -1.05672
 Alpha  occ. eigenvalues --   -1.04049  -0.82295  -0.81399  -0.70262  -0.68643
 Alpha  occ. eigenvalues --   -0.64898  -0.59804  -0.58218  -0.56561  -0.54516
 Alpha  occ. eigenvalues --   -0.52099  -0.50127  -0.49939  -0.47422  -0.46205
 Alpha  occ. eigenvalues --   -0.44943  -0.43401  -0.41897  -0.40155  -0.38371
 Alpha  occ. eigenvalues --   -0.37817  -0.37052  -0.36473  -0.33501  -0.31475
 Alpha  occ. eigenvalues --   -0.30606  -0.30179  -0.27553
 Alpha virt. eigenvalues --    0.00895   0.01344   0.01799   0.02753   0.03689
 Alpha virt. eigenvalues --    0.04148   0.04454   0.05467   0.06169   0.07650
 Alpha virt. eigenvalues --    0.08439   0.09296   0.09662   0.10271   0.11479

 Mulliken atomic charges:
              1
     1  C   -0.252995
     2  C    0.343863
     3  C   -0.013253
     4  C   -0.080315
     5  C    0.003485
     6  C   -0.055743
     7  O   -0.359732
     8  O   -0.378682
     9  O   -0.551397
    10  O   -0.566166
    11  O   -0.565985
    12  H    0.179533
    13  H    0.176920
    14  H    0.199262
    15  H    0.184926
    16  H    0.196404
    17  H    0.195604
    18  H    0.176681
    19  H    0.382221
    20  H    0.392019
    21  H    0.393349
 Sum of Mulliken atomic charges =   0.00000

 Dipole moment (field-independent basis, Debye):
    X=              0.2115    Y=             -1.6071    Z=             -1.9560  Tot=              2.5403
 Quadrupole moment (field-independent basis, Debye-Ang):
   XX=            -60.8370   YY=            -59.8262   ZZ=            -70.4275
   XY=             -5.0281   XZ=              0.0878   YZ=             -0.6278

 Normal termination of Gaussian 09 at Fri Apr 12 09:56:51 2019.
