 Gaussian 09, Revision C.01,
 Gaussian 09:  EM64L-G09RevC.01 23-Sep-2011

 -----------------------------------------------------------
 # B3LYP/6-31+G** test scrf=(pcm,solvent=water,smd,dovacuum)
 -----------------------------------------------------------

 99/5=1,9=1/99;
 -------
 comment
 -------
 Charge =  0 Multiplicity = 1

                         Standard orientation:
 ---------------------------------------------------------------------
 Center     Atomic      Atomic             Coordinates (Angstroms)
 Number     Number       Type             X           Y           Z
 ---------------------------------------------------------------------
      1          6           0        1.946446    0.661515    0.159550
      2          6           0        0.695141    1.138992   -0.597577
      3          6           0        0.711633   -1.072929   -0.707282
      4          6           0       -0.842130   -0.054982    1.047407
      5          6           0       -0.554832   -1.285029    0.146299
      6          6           0       -0.566435    1.254204    0.279557
      7          8           0        0.507804    0.062094   -1.534757
      8          8           0        1.850124   -0.775852    0.089767
      9          8           0       -1.723663    1.462988   -0.534911
     10          8           0       -0.056146   -0.016658    2.232893
     11          8           0       -1.658302   -1.531066   -0.719578
     12          1           0        1.968320    0.976710    1.203851
     13          1           0        2.861339    0.983239   -0.349197
     14          1           0        0.860673    2.056452   -1.168523
     15          1           0        0.915544   -1.937448   -1.344610
     16          1           0       -1.913070   -0.078761    1.293560
     17          1           0       -0.436970   -2.180139    0.767366
     18          1           0       -0.440700    2.070544    1.004711
     19          1           0       -1.547123    2.206526   -1.134756
     20          1           0       -0.159777   -0.867727    2.687848
     21          1           0       -1.805713   -0.692071   -1.195289
 ---------------------------------------------------------------------

 SCF Done:  E(RB3LYP) =  -610.804829073     A.U. after   12 cycles

 The electronic state is 1-A.
 Alpha  occ. eigenvalues --  -19.18200 -19.17534 -19.17319 -19.16956 -19.16949
 Alpha  occ. eigenvalues --  -10.29167 -10.25033 -10.24912 -10.24777 -10.24486
 Alpha  occ. eigenvalues --  -10.23870  -1.11202  -1.04811  -1.03514  -1.03414
 Alpha  occ. eigenvalues --   -1.00950  -0.79268  -0.77533  -0.68143  -0.65739
 Alpha  occ. eigenvalues --   -0.62835  -0.58021  -0.55621  -0.54637  -0.51997
 Alpha  occ. eigenvalues --   -0.50094  -0.47393  -0.45839  -0.45211  -0.44291
 Alpha  occ. eigenvalues --   -0.43295  -0.42569  -0.39718  -0.39020  -0.38551
 Alpha  occ. eigenvalues --   -0.37289  -0.35276  -0.33340  -0.31316  -0.29948
 Alpha  occ. eigenvalues --   -0.29750  -0.28121  -0.25762
 Alpha virt. eigenvalues --    0.00810   0.01253   0.02637   0.02890   0.03937
 Alpha virt. eigenvalues --    0.04422   0.05191   0.05477   0.06170   0.08193
 Alpha virt. eigenvalues --    0.08916   0.09686   0.10259   0.10368   0.11502

 Mulliken atomic charges:
              1
     1  C   -0.195848
     2  C    0.312311
     3  C    0.011352
     4  C    0.058405
     5  C    0.126618
     6  C   -0.052779
     7  O   -0.443512
     8  O   -0.432078
     9  O   -0.626446
    10  O   -0.609472
    11  O   -0.570632
    12  H    0.177329
    13  H    0.164707
    14  H    0.177039
    15  H    0.167588
    16  H    0.165484
    17  H    0.173849
    18  H    0.166267
    19  H    0.410871
    20  H    0.413560
    21  H    0.405385
 Sum of Mulliken atomic charges =   0.00000

 Dipole moment (field-independent basis, Debye):
    X=              1.0663    Y=              3.5095    Z=              0.9099  Tot=              3.7790
 Quadrupole moment (field-independent basis, Debye-Ang):
   XX=            -73.2074   YY=            -56.3820   ZZ=            -65.4573
   XY=              0.5923   XZ=             -2.1091   YZ=             -8.9890

 Normal termination of Gaussian 09 at Tue Apr 16 01:50:40 2019.
