 Gaussian 09, Revision C.01,
 Gaussian 09:  EM64L-G09RevC.01 23-Sep-2011

 -----------------------------------------------------------
 # B3LYP/6-31+G** test scrf=(pcm,solvent=water,smd,dovacuum)
 -----------------------------------------------------------

 99/5=1,9=1/99;
 -------
 comment
 -------
 Charge =  0 Multiplicity = 1

                         Standard orientation:
 ---------------------------------------------------------------------
 Center     Atomic      Atomic             Coordinates (Angstroms)
 Number     Number       Type             X           Y           Z
 ---------------------------------------------------------------------
      1          6           0       -1.997714   -0.541439    0.043845
      2          6           0       -0.808313   -0.900403   -0.860956
      3          6           0       -0.626967    1.253808   -0.372868
      4          6           0        0.859318   -0.314779    0.980466
      5          6           0        0.643452    1.133291    0.496502
      6          6           0        0.472566   -1.332553   -0.126501
      7          8           0       -0.533116    0.376229   -1.479755
      8          8           0       -1.779170    0.851460    0.353133
      9          8           0        1.534075   -1.461028   -1.067918
     10          8           0        0.105715   -0.492251    2.177093
     11          8           0        1.799476    1.457284   -0.280164
     12          1           0       -2.029155   -1.119702    0.968804
     13          1           0       -2.947661   -0.640443   -0.491993
     14          1           0       -1.054816   -1.609736   -1.652913
     15          1           0       -0.767030    2.272867   -0.748833
     16          1           0        1.932679   -0.436891    1.177970
     17          1           0        0.551302    1.790481    1.371366
     18          1           0        0.333993   -2.322299    0.323332
     19          1           0        1.683738   -0.562100   -1.414630
     20          1           0        0.352552   -1.354283    2.549240
     21          1           0        1.674514    2.341005   -0.664369
 ---------------------------------------------------------------------

 SCF Done:  E(RB3LYP) =  -610.804996952     A.U. after   12 cycles

 The electronic state is 1-A.
 Alpha  occ. eigenvalues --  -19.18233 -19.17579 -19.17425 -19.16943 -19.16782
 Alpha  occ. eigenvalues --  -10.29343 -10.24825 -10.24755 -10.24733 -10.24530
 Alpha  occ. eigenvalues --  -10.23868  -1.11233  -1.04735  -1.03530  -1.03375
 Alpha  occ. eigenvalues --   -1.00929  -0.79033  -0.77786  -0.67894  -0.65863
 Alpha  occ. eigenvalues --   -0.62799  -0.57928  -0.55422  -0.54763  -0.51950
 Alpha  occ. eigenvalues --   -0.50105  -0.47240  -0.46242  -0.45444  -0.45011
 Alpha  occ. eigenvalues --   -0.43018  -0.41651  -0.39593  -0.38852  -0.38186
 Alpha  occ. eigenvalues --   -0.37041  -0.35727  -0.33854  -0.31374  -0.30275
 Alpha  occ. eigenvalues --   -0.29651  -0.27005  -0.26419
 Alpha virt. eigenvalues --    0.00834   0.01210   0.02606   0.02810   0.03656
 Alpha virt. eigenvalues --    0.04669   0.05205   0.05472   0.06254   0.08205
 Alpha virt. eigenvalues --    0.08635   0.09570   0.10186   0.10441   0.11703

 Mulliken atomic charges:
              1
     1  C   -0.191606
     2  C    0.368691
     3  C   -0.015111
     4  C    0.026814
     5  C    0.186081
     6  C   -0.114096
     7  O   -0.445624
     8  O   -0.437726
     9  O   -0.584893
    10  O   -0.603757
    11  O   -0.614713
    12  H    0.177571
    13  H    0.164777
    14  H    0.173256
    15  H    0.171663
    16  H    0.168390
    17  H    0.167420
    18  H    0.170532
    19  H    0.404346
    20  H    0.414610
    21  H    0.413376
 Sum of Mulliken atomic charges =   0.00000

 Dipole moment (field-independent basis, Debye):
    X=             -0.7545    Y=             -0.3659    Z=              0.9500  Tot=              1.2672
 Quadrupole moment (field-independent basis, Debye-Ang):
   XX=            -71.4973   YY=            -53.4434   ZZ=            -68.9166
   XY=              9.3066   XZ=              5.1660   YZ=             -9.1245

 Normal termination of Gaussian 09 at Tue Apr 16 01:57:51 2019.
