 Gaussian 09, Revision C.01,
 Gaussian 09:  EM64L-G09RevC.01 23-Sep-2011

 ------------------------------------------------
 # mpw1pw91/6-31+g** nmr scrf=(pcm,solvent=water)
 ------------------------------------------------

 99/9=1/99;
 -------
 comment
 -------
 Charge =  0 Multiplicity = 1

                         Standard orientation:
 ---------------------------------------------------------------------
 Center     Atomic      Atomic             Coordinates (Angstroms)
 Number     Number       Type             X           Y           Z
 ---------------------------------------------------------------------
      1          6           0        2.123074   -0.620488   -0.637436
      2          6           0        1.096669   -1.028461    0.419315
      3          6           0        0.955825    1.173718    0.225688
      4          6           0       -1.219881   -0.049930    0.045619
      5          6           0       -0.517777    1.276292   -0.250404
      6          6           0       -0.311363   -1.270358   -0.187413
      7          8           0        1.083929    0.174433    1.222519
      8          8           0        1.791218    0.760986   -0.861162
      9          8           0       -0.953855   -2.449236    0.300190
     10          8           0       -2.404223   -0.152834   -0.732109
     11          8           0       -1.227289    2.288350    0.459798
     12          1           0        2.036984   -1.167642   -1.579744
     13          1           0        3.146431   -0.708196   -0.253726
     14          1           0        1.407064   -1.861254    1.052585
     15          1           0        1.310164    2.124260    0.635808
     16          1           0       -1.467246   -0.028028    1.119003
     17          1           0       -0.525562    1.471773   -1.330333
     18          1           0       -0.228193   -1.439191   -1.265755
     19          1           0       -1.067023   -2.353395    1.261745
     20          1           0       -2.751878   -1.045709   -0.562245
     21          1           0       -0.938265    3.149159    0.116553
 ---------------------------------------------------------------------

 SCF Done:  E(RmPW1PW91) =  -610.643398596     A.U. after   12 cycles

      1  C    Isotropic =   125.9224   Anisotropy =    41.8852

      2  C    Isotropic =   115.4503   Anisotropy =    40.9516

      3  C    Isotropic =    89.4984   Anisotropy =    24.6824

      4  C    Isotropic =   118.7254   Anisotropy =    19.4129

      5  C    Isotropic =   118.0833   Anisotropy =    30.0851

      6  C    Isotropic =   117.0327   Anisotropy =    24.9501

      7  O    Isotropic =   247.8591   Anisotropy =    41.8525

      8  O    Isotropic =   261.6854   Anisotropy =   122.9816

      9  O    Isotropic =   284.4885   Anisotropy =    59.9675

     10  O    Isotropic =   302.9928   Anisotropy =    42.0075

     11  O    Isotropic =   290.8501   Anisotropy =    54.8474

     12  H    Isotropic =    27.7094   Anisotropy =     7.6758

     13  H    Isotropic =    27.8975   Anisotropy =    10.9947

     14  H    Isotropic =    27.1951   Anisotropy =     6.6529

     15  H    Isotropic =    26.3674   Anisotropy =     6.5826

     16  H    Isotropic =    28.1515   Anisotropy =     3.1297

     17  H    Isotropic =    28.0874   Anisotropy =     2.7212

     18  H    Isotropic =    28.2314   Anisotropy =     3.8008

     19  H    Isotropic =    30.4499   Anisotropy =    16.1903

     20  H    Isotropic =    28.9978   Anisotropy =    17.5656

     21  H    Isotropic =    29.6283   Anisotropy =    19.6375

 The electronic state is 1-A.
 Alpha  occ. eigenvalues --  -19.27925 -19.27112 -19.27052 -19.26553 -19.26157
 Alpha  occ. eigenvalues --  -10.36026 -10.32099 -10.31797 -10.31435 -10.31406
 Alpha  occ. eigenvalues --  -10.30793  -1.14434  -1.08527  -1.07170  -1.05668
 Alpha  occ. eigenvalues --   -1.04158  -0.82251  -0.81385  -0.70478  -0.68433
 Alpha  occ. eigenvalues --   -0.65406  -0.60202  -0.57510  -0.56766  -0.54985
 Alpha  occ. eigenvalues --   -0.53272  -0.49849  -0.48253  -0.47021  -0.46696
 Alpha  occ. eigenvalues --   -0.45596  -0.43558  -0.41728  -0.40309  -0.38952
 Alpha  occ. eigenvalues --   -0.37495  -0.36684  -0.36480  -0.33563  -0.32568
 Alpha  occ. eigenvalues --   -0.31576  -0.28573  -0.27818
 Alpha virt. eigenvalues --    0.00995   0.01341   0.01746   0.02673   0.03616
 Alpha virt. eigenvalues --    0.04311   0.04576   0.05095   0.05986   0.07791
 Alpha virt. eigenvalues --    0.08112   0.09327   0.09498   0.10352   0.11264

 Mulliken atomic charges:
              1
     1  C   -0.255748
     2  C    0.347953
     3  C   -0.035520
     4  C    0.010352
     5  C    0.045354
     6  C   -0.194995
     7  O   -0.356120
     8  O   -0.374607
     9  O   -0.557733
    10  O   -0.545866
    11  O   -0.555164
    12  H    0.180840
    13  H    0.177510
    14  H    0.199506
    15  H    0.183814
    16  H    0.182586
    17  H    0.192876
    18  H    0.193855
    19  H    0.383637
    20  H    0.386873
    21  H    0.390598
 Sum of Mulliken atomic charges =   0.00000

 Dipole moment (field-independent basis, Debye):
    X=              2.2952    Y=             -1.3025    Z=              0.4745  Tot=              2.6814
 Quadrupole moment (field-independent basis, Debye-Ang):
   XX=            -69.6949   YY=            -58.3613   ZZ=            -66.5559
   XY=              0.5703   XZ=             -2.4056   YZ=             -3.9980

 Normal termination of Gaussian 09 at Fri Apr 12 10:03:20 2019.
