 Gaussian 09, Revision C.01,
 Gaussian 09:  EM64L-G09RevC.01 23-Sep-2011

 -----------------------------------------------------------
 # B3LYP/6-31+G** test scrf=(pcm,solvent=water,smd,dovacuum)
 -----------------------------------------------------------

 99/5=1,9=1/99;
 -------
 comment
 -------
 Charge =  0 Multiplicity = 1

                         Standard orientation:
 ---------------------------------------------------------------------
 Center     Atomic      Atomic             Coordinates (Angstroms)
 Number     Number       Type             X           Y           Z
 ---------------------------------------------------------------------
      1          6           0        1.980121    0.629166    0.102945
      2          6           0        0.668334    1.258315   -0.370007
      3          6           0        0.589229   -0.875014   -0.987778
      4          6           0       -0.724215   -0.328953    1.084101
      5          6           0       -0.637994   -1.270770   -0.141327
      6          6           0       -0.489304    1.140097    0.642180
      7          8           0        0.382003    0.421761   -1.509126
      8          8           0        1.758840   -0.781541   -0.144890
      9          8           0       -1.720010    1.544758    0.030640
     10          8           0        0.166343   -0.725798    2.121989
     11          8           0       -1.808246   -1.207944   -0.942604
     12          1           0        2.195439    0.777351    1.163138
     13          1           0        2.825116    0.978444   -0.498317
     14          1           0        0.783182    2.284539   -0.727878
     15          1           0        0.776057   -1.561827   -1.816440
     16          1           0       -1.736543   -0.386474    1.496129
     17          1           0       -0.540493   -2.303629    0.208111
     18          1           0       -0.270312    1.749448    1.529738
     19          1           0       -1.603427    2.432266   -0.347228
     20          1           0        0.976613   -1.038742    1.680131
     21          1           0       -1.954093   -0.258301   -1.116153
 ---------------------------------------------------------------------

 SCF Done:  E(RB3LYP) =  -610.805074039     A.U. after   12 cycles

 The electronic state is 1-A.
 Alpha  occ. eigenvalues --  -19.18530 -19.18352 -19.17452 -19.16972 -19.16739
 Alpha  occ. eigenvalues --  -10.29520 -10.25262 -10.24923 -10.24776 -10.24666
 Alpha  occ. eigenvalues --  -10.24366  -1.11536  -1.04778  -1.03669  -1.03475
 Alpha  occ. eigenvalues --   -1.01131  -0.79502  -0.77655  -0.68154  -0.65985
 Alpha  occ. eigenvalues --   -0.63159  -0.58915  -0.56531  -0.53562  -0.52313
 Alpha  occ. eigenvalues --   -0.48952  -0.47914  -0.46528  -0.45499  -0.44545
 Alpha  occ. eigenvalues --   -0.43873  -0.42482  -0.40445  -0.39822  -0.37950
 Alpha  occ. eigenvalues --   -0.36179  -0.35552  -0.34515  -0.32244  -0.31013
 Alpha  occ. eigenvalues --   -0.28681  -0.28132  -0.26267
 Alpha virt. eigenvalues --    0.00822   0.01407   0.02817   0.03018   0.03772
 Alpha virt. eigenvalues --    0.04473   0.05273   0.05369   0.06103   0.08325
 Alpha virt. eigenvalues --    0.08927   0.09857   0.10249   0.10413   0.11376

 Mulliken atomic charges:
              1
     1  C   -0.169959
     2  C    0.249879
     3  C    0.095054
     4  C   -0.061336
     5  C    0.122503
     6  C    0.009656
     7  O   -0.449631
     8  O   -0.497691
     9  O   -0.629410
    10  O   -0.575065
    11  O   -0.566042
    12  H    0.185606
    13  H    0.172632
    14  H    0.179889
    15  H    0.171394
    16  H    0.173007
    17  H    0.182342
    18  H    0.168317
    19  H    0.414042
    20  H    0.417701
    21  H    0.407112
 Sum of Mulliken atomic charges =   0.00000

 Dipole moment (field-independent basis, Debye):
    X=              3.2016    Y=              4.9245    Z=             -0.1859  Tot=              5.8767
 Quadrupole moment (field-independent basis, Debye-Ang):
   XX=            -69.7321   YY=            -55.2078   ZZ=            -74.9037
   XY=             -1.3530   XZ=              0.0129   YZ=              0.0900

 Normal termination of Gaussian 09 at Mon Apr 15 17:43:42 2019.
