 Gaussian 09, Revision C.01,
 Gaussian 09:  EM64L-G09RevC.01 23-Sep-2011

 -----------------------------------------------------------
 # B3LYP/6-31+G** test scrf=(pcm,solvent=water,smd,dovacuum)
 -----------------------------------------------------------

 99/5=1,9=1/99;
 -------
 comment
 -------
 Charge =  0 Multiplicity = 1

                         Standard orientation:
 ---------------------------------------------------------------------
 Center     Atomic      Atomic             Coordinates (Angstroms)
 Number     Number       Type             X           Y           Z
 ---------------------------------------------------------------------
      1          6           0        2.031243    0.447013    0.149566
      2          6           0        0.854842    1.062124   -0.609710
      3          6           0        0.567635   -1.141305   -0.692392
      4          6           0       -0.875171    0.048008    0.983880
      5          6           0       -0.743216   -1.222018    0.100979
      6          6           0       -0.373123    1.339092    0.267943
      7          8           0        0.562960   -0.009793   -1.529496
      8          8           0        1.650268   -0.946478    0.244527
      9          8           0       -1.358930    1.891839   -0.598968
     10          8           0       -0.190493   -0.143874    2.223696
     11          8           0       -1.785650   -1.368332   -0.851326
     12          1           0        2.180042    0.844786    1.155702
     13          1           0        2.960132    0.536356   -0.422668
     14          1           0        1.116101    1.944731   -1.195710
     15          1           0        0.748042   -2.030078   -1.302089
     16          1           0       -1.932147    0.193319    1.238538
     17          1           0       -0.698825   -2.089891    0.774660
     18          1           0       -0.093885    2.057052    1.052991
     19          1           0       -2.112864    2.163122   -0.050955
     20          1           0        0.632426   -0.618128    2.006813
     21          1           0       -2.597514   -1.585649   -0.366346
 ---------------------------------------------------------------------

 SCF Done:  E(RB3LYP) =  -610.804988723     A.U. after   12 cycles

 The electronic state is 1-A.
 Alpha  occ. eigenvalues --  -19.18426 -19.18196 -19.17220 -19.16935 -19.16677
 Alpha  occ. eigenvalues --  -10.29569 -10.25087 -10.24748 -10.24670 -10.24635
 Alpha  occ. eigenvalues --  -10.24235  -1.11437  -1.04450  -1.03710  -1.03356
 Alpha  occ. eigenvalues --   -1.01123  -0.79697  -0.77415  -0.67820  -0.66346
 Alpha  occ. eigenvalues --   -0.62877  -0.59003  -0.55384  -0.52919  -0.51582
 Alpha  occ. eigenvalues --   -0.49805  -0.49508  -0.47588  -0.44488  -0.44419
 Alpha  occ. eigenvalues --   -0.43198  -0.42353  -0.39511  -0.38490  -0.38176
 Alpha  occ. eigenvalues --   -0.37199  -0.35702  -0.34514  -0.31428  -0.30858
 Alpha  occ. eigenvalues --   -0.29154  -0.27254  -0.26473
 Alpha virt. eigenvalues --    0.00788   0.01532   0.02323   0.02809   0.03580
 Alpha virt. eigenvalues --    0.04527   0.05545   0.05662   0.05804   0.08252
 Alpha virt. eigenvalues --    0.08349   0.09796   0.10121   0.10469   0.11435

 Mulliken atomic charges:
              1
     1  C   -0.154989
     2  C    0.318529
     3  C    0.088753
     4  C    0.090354
     5  C    0.060015
     6  C   -0.120882
     7  O   -0.432109
     8  O   -0.498155
     9  O   -0.619974
    10  O   -0.590268
    11  O   -0.606032
    12  H    0.183793
    13  H    0.170739
    14  H    0.175198
    15  H    0.171421
    16  H    0.165602
    17  H    0.178538
    18  H    0.168754
    19  H    0.413211
    20  H    0.417917
    21  H    0.419584
 Sum of Mulliken atomic charges =   0.00000

 Dipole moment (field-independent basis, Debye):
    X=             -0.2575    Y=              0.8085    Z=              3.3031  Tot=              3.4104
 Quadrupole moment (field-independent basis, Debye-Ang):
   XX=            -53.3194   YY=            -58.8484   ZZ=            -79.8939
   XY=              4.4536   XZ=             -5.3658   YZ=              2.0534

 Normal termination of Gaussian 09 at Mon Apr 15 17:50:21 2019.
