 Gaussian 09, Revision C.01,
 Gaussian 09:  EM64L-G09RevC.01 23-Sep-2011

 ------------------------------------------------
 # mpw1pw91/6-31+g** nmr scrf=(pcm,solvent=water)
 ------------------------------------------------

 99/9=1/99;
 -------
 comment
 -------
 Charge =  0 Multiplicity = 1

                         Standard orientation:
 ---------------------------------------------------------------------
 Center     Atomic      Atomic             Coordinates (Angstroms)
 Number     Number       Type             X           Y           Z
 ---------------------------------------------------------------------
      1          6           0       -2.111982    0.642994   -0.639169
      2          6           0       -1.085669    1.035927    0.423110
      3          6           0       -0.969970   -1.166275    0.224535
      4          6           0        1.218726    0.036795    0.047302
      5          6           0        0.502012   -1.279332   -0.253403
      6          6           0        0.327918    1.267085   -0.175852
      7          8           0       -1.089286   -0.169618    1.223511
      8          8           0       -1.804130   -0.744663   -0.860134
      9          8           0        1.030602    2.347619    0.442976
     10          8           0        2.404553    0.127316   -0.730737
     11          8           0        1.202504   -2.301304    0.452000
     12          1           0       -2.010707    1.187934   -1.581595
     13          1           0       -3.136642    0.748701   -0.263506
     14          1           0       -1.386696    1.867459    1.062054
     15          1           0       -1.331006   -2.115730    0.631542
     16          1           0        1.463688    0.018907    1.119253
     17          1           0        0.506883   -1.471952   -1.333949
     18          1           0        0.249587    1.450160   -1.255812
     19          1           0        0.710775    3.178231    0.056693
     20          1           0        2.788059    0.995752   -0.518458
     21          1           0        0.905906   -3.157435    0.103717
 ---------------------------------------------------------------------

 SCF Done:  E(RmPW1PW91) =  -610.644097616     A.U. after   12 cycles

      1  C    Isotropic =   126.8022   Anisotropy =    43.6564

      2  C    Isotropic =   114.7221   Anisotropy =    39.5183

      3  C    Isotropic =    89.8438   Anisotropy =    24.8211

      4  C    Isotropic =   120.6523   Anisotropy =    24.7107

      5  C    Isotropic =   118.1371   Anisotropy =    30.6948

      6  C    Isotropic =   117.5944   Anisotropy =    23.7810

      7  O    Isotropic =   248.0725   Anisotropy =    44.4330

      8  O    Isotropic =   261.1109   Anisotropy =   124.2335

      9  O    Isotropic =   289.3673   Anisotropy =    34.1641

     10  O    Isotropic =   302.3809   Anisotropy =    43.0563

     11  O    Isotropic =   290.6910   Anisotropy =    54.9312

     12  H    Isotropic =    27.7768   Anisotropy =     7.6101

     13  H    Isotropic =    27.9437   Anisotropy =    11.0358

     14  H    Isotropic =    27.1735   Anisotropy =     6.6994

     15  H    Isotropic =    26.3614   Anisotropy =     6.6070

     16  H    Isotropic =    27.9750   Anisotropy =     2.9731

     17  H    Isotropic =    28.0833   Anisotropy =     2.7313

     18  H    Isotropic =    28.0344   Anisotropy =     4.1124

     19  H    Isotropic =    29.2643   Anisotropy =    19.5797

     20  H    Isotropic =    28.9956   Anisotropy =    17.7156

     21  H    Isotropic =    29.6299   Anisotropy =    19.6382

 The electronic state is 1-A.
 Alpha  occ. eigenvalues --  -19.27799 -19.26964 -19.26917 -19.26485 -19.26024
 Alpha  occ. eigenvalues --  -10.35934 -10.31883 -10.31733 -10.31330 -10.31237
 Alpha  occ. eigenvalues --  -10.30693  -1.14317  -1.08379  -1.07061  -1.05532
 Alpha  occ. eigenvalues --   -1.04047  -0.82177  -0.81383  -0.70461  -0.68315
 Alpha  occ. eigenvalues --   -0.65081  -0.59164  -0.57743  -0.56145  -0.55394
 Alpha  occ. eigenvalues --   -0.53627  -0.50859  -0.47653  -0.46933  -0.46244
 Alpha  occ. eigenvalues --   -0.44811  -0.44134  -0.42020  -0.39436  -0.38453
 Alpha  occ. eigenvalues --   -0.38198  -0.36523  -0.35601  -0.34359  -0.32148
 Alpha  occ. eigenvalues --   -0.31139  -0.28679  -0.27740
 Alpha virt. eigenvalues --    0.00876   0.01291   0.01775   0.02809   0.03304
 Alpha virt. eigenvalues --    0.04429   0.04454   0.05396   0.06184   0.07859
 Alpha virt. eigenvalues --    0.08317   0.09118   0.09355   0.10410   0.11695

 Mulliken atomic charges:
              1
     1  C   -0.251058
     2  C    0.364227
     3  C   -0.035534
     4  C   -0.025020
     5  C    0.053262
     6  C   -0.157129
     7  O   -0.358841
     8  O   -0.374999
     9  O   -0.581331
    10  O   -0.551330
    11  O   -0.555958
    12  H    0.179266
    13  H    0.176479
    14  H    0.196364
    15  H    0.183196
    16  H    0.188864
    17  H    0.191585
    18  H    0.187705
    19  H    0.394459
    20  H    0.385677
    21  H    0.390115
 Sum of Mulliken atomic charges =   0.00000

 Dipole moment (field-independent basis, Debye):
    X=             -3.0113    Y=              3.3156    Z=             -2.1243  Tot=              4.9572
 Quadrupole moment (field-independent basis, Debye-Ang):
   XX=            -71.2579   YY=            -47.2681   ZZ=            -70.8673
   XY=             -0.0955   XZ=             -0.5210   YZ=             -2.4472

 Normal termination of Gaussian 09 at Fri Apr 12 10:12:49 2019.
