 Gaussian 09, Revision C.01,
 Gaussian 09:  EM64L-G09RevC.01 23-Sep-2011

 -----------------------------------------------------------
 # B3LYP/6-31+G** test scrf=(pcm,solvent=water,smd,dovacuum)
 -----------------------------------------------------------

 99/5=1,9=1/99;
 -------
 comment
 -------
 Charge =  0 Multiplicity = 1

                         Standard orientation:
 ---------------------------------------------------------------------
 Center     Atomic      Atomic             Coordinates (Angstroms)
 Number     Number       Type             X           Y           Z
 ---------------------------------------------------------------------
      1          6           0       -2.136913    0.598638   -0.621313
      2          6           0       -1.108963    1.005964    0.433165
      3          6           0       -0.940513   -1.193004    0.207716
      4          6           0        1.220216    0.065506    0.044360
      5          6           0        0.534859   -1.273934   -0.263041
      6          6           0        0.291395    1.272280   -0.183488
      7          8           0       -1.077533   -0.208789    1.219885
      8          8           0       -1.778347   -0.771472   -0.873363
      9          8           0        0.916332    2.463034    0.296985
     10          8           0        2.404150    0.187626   -0.728292
     11          8           0        1.224076   -2.373376    0.322060
     12          1           0       -2.069578    1.163439   -1.554532
     13          1           0       -3.158189    0.658884   -0.226975
     14          1           0       -1.424274    1.825859    1.080564
     15          1           0       -1.280493   -2.155924    0.600036
     16          1           0        1.467497    0.056414    1.120163
     17          1           0        0.547079   -1.460817   -1.340361
     18          1           0        0.198306    1.436770   -1.261671
     19          1           0        1.030667    2.376094    1.259261
     20          1           0        2.737601    1.086059   -0.558544
     21          1           0        1.281474   -2.215661    1.279461
 ---------------------------------------------------------------------

 SCF Done:  E(RB3LYP) =  -610.804596650     A.U. after   12 cycles

 The electronic state is 1-A.
 Alpha  occ. eigenvalues --  -19.18388 -19.17602 -19.17320 -19.17171 -19.16916
 Alpha  occ. eigenvalues --  -10.29418 -10.25161 -10.24829 -10.24669 -10.24609
 Alpha  occ. eigenvalues --  -10.23953  -1.11115  -1.05210  -1.03866  -1.02533
 Alpha  occ. eigenvalues --   -1.01131  -0.79154  -0.78163  -0.67580  -0.65881
 Alpha  occ. eigenvalues --   -0.62918  -0.58957  -0.55381  -0.53855  -0.51461
 Alpha  occ. eigenvalues --   -0.50388  -0.49616  -0.45964  -0.45250  -0.44675
 Alpha  occ. eigenvalues --   -0.42996  -0.40790  -0.40262  -0.38848  -0.37770
 Alpha  occ. eigenvalues --   -0.36123  -0.34978  -0.33870  -0.33215  -0.30436
 Alpha  occ. eigenvalues --   -0.30206  -0.26870  -0.26408
 Alpha virt. eigenvalues --    0.01056   0.01552   0.02281   0.02763   0.03926
 Alpha virt. eigenvalues --    0.04392   0.04777   0.05334   0.05919   0.07920
 Alpha virt. eigenvalues --    0.08251   0.09429   0.10109   0.10476   0.11085

 Mulliken atomic charges:
              1
     1  C   -0.212769
     2  C    0.358226
     3  C    0.101304
     4  C    0.142149
     5  C    0.029368
     6  C   -0.123198
     7  O   -0.443786
     8  O   -0.452531
     9  O   -0.621423
    10  O   -0.620567
    11  O   -0.599810
    12  H    0.173674
    13  H    0.165429
    14  H    0.183678
    15  H    0.174162
    16  H    0.166776
    17  H    0.180070
    18  H    0.181081
    19  H    0.406158
    20  H    0.410353
    21  H    0.401654
 Sum of Mulliken atomic charges =   0.00000

 Dipole moment (field-independent basis, Debye):
    X=             -1.7815    Y=              3.8248    Z=              3.4634  Tot=              5.4587
 Quadrupole moment (field-independent basis, Debye-Ang):
   XX=            -69.3314   YY=            -71.6138   ZZ=            -62.7595
   XY=              1.1201   XZ=              6.4863   YZ=             -1.7701

 Normal termination of Gaussian 09 at Mon Apr 15 17:49:03 2019.
