 Gaussian 09, Revision C.01,
 Gaussian 09:  EM64L-G09RevC.01 23-Sep-2011

 -----------------------------------------------------------
 # B3LYP/6-31+G** test scrf=(pcm,solvent=water,smd,dovacuum)
 -----------------------------------------------------------

 99/5=1,9=1/99;
 -------
 comment
 -------
 Charge =  0 Multiplicity = 1

                         Standard orientation:
 ---------------------------------------------------------------------
 Center     Atomic      Atomic             Coordinates (Angstroms)
 Number     Number       Type             X           Y           Z
 ---------------------------------------------------------------------
      1          6           0       -2.155410    0.465241   -0.656809
      2          6           0       -1.159026    0.967817    0.389584
      3          6           0       -0.887479   -1.227548    0.264377
      4          6           0        1.195840    0.144972    0.056057
      5          6           0        0.577287   -1.222534   -0.247615
      6          6           0        0.230010    1.301904   -0.206957
      7          8           0       -1.071934   -0.205452    1.229671
      8          8           0       -1.774462   -0.913541   -0.814024
      9          8           0        0.709384    2.497536    0.402493
     10          8           0        2.378767    0.400942   -0.694672
     11          8           0        1.398714   -2.177143    0.424049
     12          1           0       -2.082029    0.973180   -1.622042
     13          1           0       -3.185221    0.529772   -0.286551
     14          1           0       -1.522713    1.797466    0.996808
     15          1           0       -1.160332   -2.187782    0.711894
     16          1           0        1.419060    0.153800    1.131394
     17          1           0        0.570813   -1.404131   -1.329494
     18          1           0        0.145773    1.448275   -1.294553
     19          1           0        1.627661    2.602707    0.099013
     20          1           0        3.034532   -0.260376   -0.418629
     21          1           0        1.221365   -3.050752    0.040206
 ---------------------------------------------------------------------

 SCF Done:  E(RB3LYP) =  -610.804869910     A.U. after   12 cycles

 The electronic state is 1-A.
 Alpha  occ. eigenvalues --  -19.18365 -19.17524 -19.17218 -19.17114 -19.16982
 Alpha  occ. eigenvalues --  -10.29377 -10.25201 -10.24806 -10.24516 -10.24454
 Alpha  occ. eigenvalues --  -10.23918  -1.11091  -1.05208  -1.03805  -1.02456
 Alpha  occ. eigenvalues --   -1.01102  -0.79294  -0.78419  -0.67537  -0.66019
 Alpha  occ. eigenvalues --   -0.62422  -0.57508  -0.55866  -0.54326  -0.52292
 Alpha  occ. eigenvalues --   -0.50031  -0.48071  -0.47895  -0.45429  -0.44191
 Alpha  occ. eigenvalues --   -0.42986  -0.41548  -0.40099  -0.38608  -0.36650
 Alpha  occ. eigenvalues --   -0.36220  -0.35527  -0.34933  -0.31808  -0.29910
 Alpha  occ. eigenvalues --   -0.29137  -0.28677  -0.26109
 Alpha virt. eigenvalues --    0.01017   0.01446   0.02015   0.03005   0.03829
 Alpha virt. eigenvalues --    0.04288   0.04592   0.05599   0.06285   0.07814
 Alpha virt. eigenvalues --    0.08541   0.09492   0.09857   0.10482   0.11682

 Mulliken atomic charges:
              1
     1  C   -0.201479
     2  C    0.341939
     3  C    0.115303
     4  C    0.029394
     5  C    0.043328
     6  C    0.007307
     7  O   -0.442329
     8  O   -0.452731
     9  O   -0.624328
    10  O   -0.633998
    11  O   -0.632478
    12  H    0.172399
    13  H    0.165098
    14  H    0.183383
    15  H    0.172069
    16  H    0.175118
    17  H    0.179888
    18  H    0.169476
    19  H    0.403483
    20  H    0.412899
    21  H    0.416260
 Sum of Mulliken atomic charges =   0.00000

 Dipole moment (field-independent basis, Debye):
    X=              0.2363    Y=             -1.7444    Z=             -2.2303  Tot=              2.8413
 Quadrupole moment (field-independent basis, Debye-Ang):
   XX=            -61.5508   YY=            -60.3016   ZZ=            -71.4419
   XY=             -5.4691   XZ=              0.1275   YZ=             -0.7287

 Normal termination of Gaussian 09 at Mon Apr 15 17:45:35 2019.
