 Gaussian 09, Revision C.01,
 Gaussian 09:  EM64L-G09RevC.01 23-Sep-2011

 -----------------------------------------------------------
 # B3LYP/6-31+G** test scrf=(pcm,solvent=water,smd,dovacuum)
 -----------------------------------------------------------

 99/5=1,9=1/99;
 -------
 comment
 -------
 Charge =  0 Multiplicity = 1

                         Standard orientation:
 ---------------------------------------------------------------------
 Center     Atomic      Atomic             Coordinates (Angstroms)
 Number     Number       Type             X           Y           Z
 ---------------------------------------------------------------------
      1          6           0       -2.114440    0.577049   -0.673903
      2          6           0       -1.100131    1.033516    0.379624
      3          6           0       -0.957512   -1.174808    0.277018
      4          6           0        1.204103    0.062788    0.055146
      5          6           0        0.493738   -1.255968   -0.250314
      6          6           0        0.318642    1.285755   -0.205171
      7          8           0       -1.080863   -0.135878    1.231924
      8          8           0       -1.843848   -0.831665   -0.789723
      9          8           0        0.993704    2.379620    0.418748
     10          8           0        2.412075    0.101353   -0.695702
     11          8           0        1.144827   -2.343884    0.399420
     12          1           0       -1.983759    1.054171   -1.649328
     13          1           0       -3.143479    0.730318   -0.329112
     14          1           0       -1.430621    1.882407    0.980101
     15          1           0       -1.264052   -2.119057    0.734218
     16          1           0        1.424521    0.060298    1.131593
     17          1           0        0.462709   -1.418707   -1.336561
     18          1           0        0.252725    1.458123   -1.287801
     19          1           0        0.655674    3.203594    0.033466
     20          1           0        2.871103    0.916997   -0.433165
     21          1           0        2.081614   -2.294500    0.144862
 ---------------------------------------------------------------------

 SCF Done:  E(RB3LYP) =  -610.804507659     A.U. after   12 cycles

 The electronic state is 1-A.
 Alpha  occ. eigenvalues --  -19.18364 -19.17505 -19.17119 -19.17094 -19.17045
 Alpha  occ. eigenvalues --  -10.29567 -10.25050 -10.24777 -10.24566 -10.24435
 Alpha  occ. eigenvalues --  -10.23918  -1.11122  -1.05199  -1.03811  -1.02441
 Alpha  occ. eigenvalues --   -1.01120  -0.79163  -0.78504  -0.67743  -0.65918
 Alpha  occ. eigenvalues --   -0.62412  -0.57454  -0.55894  -0.54200  -0.52046
 Alpha  occ. eigenvalues --   -0.50302  -0.49040  -0.47122  -0.45178  -0.43796
 Alpha  occ. eigenvalues --   -0.42795  -0.41402  -0.41081  -0.38667  -0.37044
 Alpha  occ. eigenvalues --   -0.36188  -0.35540  -0.34428  -0.31981  -0.29813
 Alpha  occ. eigenvalues --   -0.29475  -0.27324  -0.26913
 Alpha virt. eigenvalues --    0.00942   0.01414   0.01976   0.03028   0.03845
 Alpha virt. eigenvalues --    0.04413   0.04565   0.05585   0.06318   0.07896
 Alpha virt. eigenvalues --    0.08625   0.09242   0.09751   0.10412   0.11669

 Mulliken atomic charges:
              1
     1  C   -0.202008
     2  C    0.388537
     3  C    0.073018
     4  C    0.038046
     5  C    0.109165
     6  C   -0.072814
     7  O   -0.439656
     8  O   -0.449202
     9  O   -0.647509
    10  O   -0.631252
    11  O   -0.614830
    12  H    0.171206
    13  H    0.165270
    14  H    0.180678
    15  H    0.174594
    16  H    0.174221
    17  H    0.173633
    18  H    0.175884
    19  H    0.415637
    20  H    0.410660
    21  H    0.406721
 Sum of Mulliken atomic charges =   0.00000

 Dipole moment (field-independent basis, Debye):
    X=             -0.4068    Y=              5.6667    Z=             -2.2308  Tot=              6.1035
 Quadrupole moment (field-independent basis, Debye-Ang):
   XX=            -63.3716   YY=            -59.2145   ZZ=            -71.2448
   XY=             -5.1137   XZ=              0.5554   YZ=             -3.6441

 Normal termination of Gaussian 09 at Mon Apr 15 17:58:43 2019.
