 Gaussian 09, Revision C.01,
 Gaussian 09:  EM64L-G09RevC.01 23-Sep-2011

 ------------------------------------------------
 # mpw1pw91/6-31+g** nmr scrf=(pcm,solvent=water)
 ------------------------------------------------

 99/9=1/99;
 -------
 comment
 -------
 Charge =  0 Multiplicity = 1

                         Standard orientation:
 ---------------------------------------------------------------------
 Center     Atomic      Atomic             Coordinates (Angstroms)
 Number     Number       Type             X           Y           Z
 ---------------------------------------------------------------------
      1          6           0       -2.140915    0.555907   -0.646371
      2          6           0       -1.116276    1.014860    0.393115
      3          6           0       -0.938358   -1.188863    0.264119
      4          6           0        1.201059    0.088720    0.071134
      5          6           0        0.517024   -1.244991   -0.260260
      6          6           0        0.283873    1.283003   -0.211973
      7          8           0       -1.074214   -0.162676    1.232012
      8          8           0       -1.825583   -0.840135   -0.801821
      9          8           0        0.816675    2.468110    0.369846
     10          8           0        2.412965    0.281782   -0.666965
     11          8           0        1.169956   -2.340664    0.376807
     12          1           0       -2.048834    1.057694   -1.613272
     13          1           0       -3.164922    0.668388   -0.271717
     14          1           0       -1.439118    1.858831    1.003582
     15          1           0       -1.235653   -2.141768    0.709553
     16          1           0        1.409079    0.086504    1.146379
     17          1           0        0.491172   -1.391592   -1.348100
     18          1           0        0.202634    1.410693   -1.302477
     19          1           0        1.735389    2.523680    0.053297
     20          1           0        3.159164    0.040513   -0.097956
     21          1           0        2.054266   -2.416092   -0.016913
 ---------------------------------------------------------------------

 SCF Done:  E(RmPW1PW91) =  -610.644062218     A.U. after   12 cycles

      1  C    Isotropic =   126.3763   Anisotropy =    44.0327

      2  C    Isotropic =   116.2364   Anisotropy =    43.6186

      3  C    Isotropic =    90.7658   Anisotropy =    22.9613

      4  C    Isotropic =   116.5807   Anisotropy =    18.6127

      5  C    Isotropic =   116.8258   Anisotropy =    26.1956

      6  C    Isotropic =   119.7236   Anisotropy =    28.4345

      7  O    Isotropic =   244.5856   Anisotropy =    47.6316

      8  O    Isotropic =   258.4251   Anisotropy =   129.3875

      9  O    Isotropic =   294.6437   Anisotropy =    55.2103

     10  O    Isotropic =   316.5498   Anisotropy =    44.2495

     11  O    Isotropic =   297.8571   Anisotropy =    45.3700

     12  H    Isotropic =    27.7044   Anisotropy =     7.5905

     13  H    Isotropic =    27.8447   Anisotropy =    10.9794

     14  H    Isotropic =    27.0713   Anisotropy =     6.7428

     15  H    Isotropic =    26.2101   Anisotropy =     6.4240

     16  H    Isotropic =    28.1214   Anisotropy =     4.2647

     17  H    Isotropic =    28.1532   Anisotropy =     3.2809

     18  H    Isotropic =    28.0028   Anisotropy =     4.1254

     19  H    Isotropic =    29.0094   Anisotropy =    18.0093

     20  H    Isotropic =    29.1531   Anisotropy =    20.8065

     21  H    Isotropic =    29.4370   Anisotropy =    18.5991

 The electronic state is 1-A.
 Alpha  occ. eigenvalues --  -19.27843 -19.27040 -19.26918 -19.26600 -19.26316
 Alpha  occ. eigenvalues --  -10.36088 -10.32026 -10.31566 -10.31299 -10.31145
 Alpha  occ. eigenvalues --  -10.30692  -1.14378  -1.08525  -1.07023  -1.05740
 Alpha  occ. eigenvalues --   -1.04054  -0.82312  -0.81485  -0.70151  -0.68804
 Alpha  occ. eigenvalues --   -0.64530  -0.59650  -0.58186  -0.57106  -0.54179
 Alpha  occ. eigenvalues --   -0.52305  -0.50629  -0.50157  -0.47477  -0.45999
 Alpha  occ. eigenvalues --   -0.44379  -0.43148  -0.41666  -0.41211  -0.38607
 Alpha  occ. eigenvalues --   -0.37166  -0.37055  -0.36346  -0.33699  -0.31920
 Alpha  occ. eigenvalues --   -0.30448  -0.29929  -0.27648
 Alpha virt. eigenvalues --    0.00385   0.01369   0.02124   0.02621   0.03709
 Alpha virt. eigenvalues --    0.04192   0.04438   0.05550   0.06313   0.07360
 Alpha virt. eigenvalues --    0.08520   0.09419   0.09858   0.10166   0.11451

 Mulliken atomic charges:
              1
     1  C   -0.250508
     2  C    0.348072
     3  C   -0.031250
     4  C   -0.165331
     5  C    0.109510
     6  C   -0.064297
     7  O   -0.361736
     8  O   -0.379907
     9  O   -0.548669
    10  O   -0.588463
    11  O   -0.550555
    12  H    0.179498
    13  H    0.176993
    14  H    0.199153
    15  H    0.188094
    16  H    0.203625
    17  H    0.190633
    18  H    0.176265
    19  H    0.382447
    20  H    0.400265
    21  H    0.386161
 Sum of Mulliken atomic charges =   0.00000

 Dipole moment (field-independent basis, Debye):
    X=              2.6269    Y=              0.9570    Z=             -1.3072  Tot=              3.0863
 Quadrupole moment (field-independent basis, Debye-Ang):
   XX=            -52.1188   YY=            -69.9041   ZZ=            -70.1726
   XY=             -5.9755   XZ=              1.9674   YZ=             -1.0253

 Normal termination of Gaussian 09 at Fri Apr 12 10:02:05 2019.
