 Gaussian 09, Revision C.01,
 Gaussian 09:  EM64L-G09RevC.01 23-Sep-2011

 -----------------------------------------------------------
 # B3LYP/6-31+G** test scrf=(pcm,solvent=water,smd,dovacuum)
 -----------------------------------------------------------

 99/5=1,9=1/99;
 -------
 comment
 -------
 Charge =  0 Multiplicity = 1

                         Standard orientation:
 ---------------------------------------------------------------------
 Center     Atomic      Atomic             Coordinates (Angstroms)
 Number     Number       Type             X           Y           Z
 ---------------------------------------------------------------------
      1          6           0       -2.159809    0.470976   -0.643069
      2          6           0       -1.158536    0.957454    0.404799
      3          6           0       -0.884982   -1.236705    0.241030
      4          6           0        1.198823    0.146052    0.050220
      5          6           0        0.581943   -1.227051   -0.260025
      6          6           0        0.226001    1.301925   -0.197632
      7          8           0       -1.067079   -0.231121    1.224855
      8          8           0       -1.766400   -0.900238   -0.834373
      9          8           0        0.702155    2.495675    0.417845
     10          8           0        2.374701    0.411847   -0.706608
     11          8           0        1.374277   -2.273973    0.296907
     12          1           0       -2.098784    0.999608   -1.597815
     13          1           0       -3.186780    0.517945   -0.262501
     14          1           0       -1.517894    1.776311    1.028862
     15          1           0       -1.158881   -2.206517    0.666907
     16          1           0        1.430267    0.163150    1.125823
     17          1           0        0.582923   -1.406551   -1.338454
     18          1           0        0.135107    1.455002   -1.283595
     19          1           0        1.614324    2.615584    0.101854
     20          1           0        3.028508   -0.263940   -0.462106
     21          1           0        1.409345   -2.144026    1.260081
 ---------------------------------------------------------------------

 SCF Done:  E(RB3LYP) =  -610.804774874     A.U. after   12 cycles

 The electronic state is 1-A.
 Alpha  occ. eigenvalues --  -19.18408 -19.17573 -19.17286 -19.17126 -19.17013
 Alpha  occ. eigenvalues --  -10.29458 -10.25233 -10.24842 -10.24518 -10.24495
 Alpha  occ. eigenvalues --  -10.23939  -1.11121  -1.05214  -1.03853  -1.02505
 Alpha  occ. eigenvalues --   -1.01130  -0.79339  -0.78220  -0.67581  -0.66071
 Alpha  occ. eigenvalues --   -0.62582  -0.58032  -0.55647  -0.55044  -0.51452
 Alpha  occ. eigenvalues --   -0.49290  -0.48655  -0.47772  -0.45814  -0.44641
 Alpha  occ. eigenvalues --   -0.42108  -0.41620  -0.40060  -0.38517  -0.37079
 Alpha  occ. eigenvalues --   -0.36264  -0.35672  -0.34798  -0.32133  -0.30076
 Alpha  occ. eigenvalues --   -0.29058  -0.28792  -0.25886
 Alpha virt. eigenvalues --    0.00985   0.01450   0.02191   0.02977   0.04058
 Alpha virt. eigenvalues --    0.04232   0.04587   0.05463   0.06160   0.07797
 Alpha virt. eigenvalues --    0.08482   0.09486   0.10050   0.10380   0.11296

 Mulliken atomic charges:
              1
     1  C   -0.207764
     2  C    0.336770
     3  C    0.114532
     4  C    0.069036
     5  C    0.017802
     6  C   -0.013646
     7  O   -0.443705
     8  O   -0.455128
     9  O   -0.623718
    10  O   -0.633578
    11  O   -0.604236
    12  H    0.172994
    13  H    0.165497
    14  H    0.183477
    15  H    0.174999
    16  H    0.173282
    17  H    0.181589
    18  H    0.170362
    19  H    0.404063
    20  H    0.414580
    21  H    0.402791
 Sum of Mulliken atomic charges =   0.00000

 Dipole moment (field-independent basis, Debye):
    X=              0.6533    Y=              0.5949    Z=              0.7184  Tot=              1.1388
 Quadrupole moment (field-independent basis, Debye-Ang):
   XX=            -60.1424   YY=            -72.5142   ZZ=            -67.0906
   XY=             -3.6720   XZ=              4.2217   YZ=             -7.1610

 Normal termination of Gaussian 09 at Mon Apr 15 17:52:21 2019.
