 Gaussian 09, Revision C.01,
 Gaussian 09:  EM64L-G09RevC.01 23-Sep-2011

 -----------------------------------------------------------
 # B3LYP/6-31+G** test scrf=(pcm,solvent=water,smd,dovacuum)
 -----------------------------------------------------------

 99/5=1,9=1/99;
 -------
 comment
 -------
 Charge =  0 Multiplicity = 1

                         Standard orientation:
 ---------------------------------------------------------------------
 Center     Atomic      Atomic             Coordinates (Angstroms)
 Number     Number       Type             X           Y           Z
 ---------------------------------------------------------------------
      1          6           0        2.006919    0.488881    0.153243
      2          6           0        0.819785    1.060180   -0.636993
      3          6           0        0.608308   -1.147172   -0.651156
      4          6           0       -0.851350    0.104769    1.032425
      5          6           0       -0.659511   -1.204524    0.220142
      6          6           0       -0.454629    1.334268    0.182013
      7          8           0        0.527243   -0.039202   -1.528616
      8          8           0        1.760838   -0.934112    0.149676
      9          8           0       -1.514149    1.684898   -0.701941
     10          8           0       -0.078229    0.139860    2.226609
     11          8           0       -1.739762   -1.377791   -0.700539
     12          1           0        2.057926    0.847541    1.182279
     13          1           0        2.953947    0.686173   -0.360315
     14          1           0        1.073807    1.927619   -1.248674
     15          1           0        0.725024   -2.057065   -1.245803
     16          1           0       -1.922454    0.200575    1.267851
     17          1           0       -0.584365   -2.061087    0.906090
     18          1           0       -0.300999    2.188303    0.849301
     19          1           0       -1.673664    0.890443   -1.244200
     20          1           0       -0.248313   -0.678161    2.721245
     21          1           0       -2.545575   -1.551979   -0.187331
 ---------------------------------------------------------------------

 SCF Done:  E(RB3LYP) =  -610.805083975     A.U. after   12 cycles

 The electronic state is 1-A.
 Alpha  occ. eigenvalues --  -19.18234 -19.17542 -19.17406 -19.16933 -19.16791
 Alpha  occ. eigenvalues --  -10.29383 -10.24837 -10.24756 -10.24685 -10.24625
 Alpha  occ. eigenvalues --  -10.23842  -1.11249  -1.04747  -1.03544  -1.03406
 Alpha  occ. eigenvalues --   -1.00920  -0.79183  -0.77550  -0.68013  -0.65948
 Alpha  occ. eigenvalues --   -0.62711  -0.58350  -0.55417  -0.53625  -0.52020
 Alpha  occ. eigenvalues --   -0.50808  -0.47484  -0.46240  -0.45214  -0.44266
 Alpha  occ. eigenvalues --   -0.43103  -0.41575  -0.40970  -0.39864  -0.37536
 Alpha  occ. eigenvalues --   -0.35764  -0.35305  -0.34636  -0.31682  -0.30448
 Alpha  occ. eigenvalues --   -0.28534  -0.27522  -0.26430
 Alpha virt. eigenvalues --    0.00761   0.01476   0.02301   0.02985   0.03717
 Alpha virt. eigenvalues --    0.04507   0.05382   0.05573   0.06082   0.08078
 Alpha virt. eigenvalues --    0.08790   0.09675   0.10044   0.10412   0.11794

 Mulliken atomic charges:
              1
     1  C   -0.187340
     2  C    0.397399
     3  C    0.005585
     4  C    0.116885
     5  C    0.127456
     6  C   -0.192914
     7  O   -0.450762
     8  O   -0.432853
     9  O   -0.579793
    10  O   -0.611014
    11  O   -0.623711
    12  H    0.177484
    13  H    0.164777
    14  H    0.174507
    15  H    0.169182
    16  H    0.163011
    17  H    0.170743
    18  H    0.171753
    19  H    0.405490
    20  H    0.412578
    21  H    0.421538
 Sum of Mulliken atomic charges =   0.00000

 Dipole moment (field-independent basis, Debye):
    X=             -1.1595    Y=             -2.0926    Z=              3.2771  Tot=              4.0574
 Quadrupole moment (field-independent basis, Debye-Ang):
   XX=            -62.0989   YY=            -63.8843   ZZ=            -68.4710
   XY=             12.4692   XZ=             -6.2896   YZ=             -4.4476

 Normal termination of Gaussian 09 at Mon Apr 15 17:53:00 2019.
