 Gaussian 09, Revision C.01,
 Gaussian 09:  EM64L-G09RevC.01 23-Sep-2011

 ------------------------------------------------
 # mpw1pw91/6-31+g** nmr scrf=(pcm,solvent=water)
 ------------------------------------------------

 99/9=1/99;
 -------
 comment
 -------
 Charge =  0 Multiplicity = 1

                         Standard orientation:
 ---------------------------------------------------------------------
 Center     Atomic      Atomic             Coordinates (Angstroms)
 Number     Number       Type             X           Y           Z
 ---------------------------------------------------------------------
      1          6           0       -2.122976    0.561616   -0.673154
      2          6           0       -1.108034    1.029928    0.374364
      3          6           0       -0.946877   -1.178532    0.278250
      4          6           0        1.206367    0.071856    0.052130
      5          6           0        0.505865   -1.255391   -0.245980
      6          6           0        0.306608    1.288358   -0.215822
      7          8           0       -1.077084   -0.136507    1.230131
      8          8           0       -1.831351   -0.842269   -0.792325
      9          8           0        0.924563    2.476409    0.279305
     10          8           0        2.411393    0.119906   -0.701368
     11          8           0        1.159981   -2.336259    0.412177
     12          1           0       -2.006452    1.041670   -1.648635
     13          1           0       -3.151089    0.699722   -0.319183
     14          1           0       -1.445631    1.881183    0.967964
     15          1           0       -1.250446   -2.122194    0.738542
     16          1           0        1.431477    0.064677    1.129717
     17          1           0        0.477768   -1.424045   -1.331253
     18          1           0        0.238282    1.449841   -1.296283
     19          1           0        1.020912    2.384457    1.242957
     20          1           0        2.844399    0.960981   -0.476423
     21          1           0        2.095039   -2.293540    0.150505
 ---------------------------------------------------------------------

 SCF Done:  E(RmPW1PW91) =  -610.644292199     A.U. after   11 cycles

      1  C    Isotropic =   126.2665   Anisotropy =    45.0627

      2  C    Isotropic =   114.6168   Anisotropy =    41.3927

      3  C    Isotropic =    91.2017   Anisotropy =    25.2983

      4  C    Isotropic =   117.0015   Anisotropy =    15.9995

      5  C    Isotropic =   117.8188   Anisotropy =    28.9782

      6  C    Isotropic =   117.2092   Anisotropy =    25.8532

      7  O    Isotropic =   245.5304   Anisotropy =    44.6296

      8  O    Isotropic =   259.5281   Anisotropy =   130.5188

      9  O    Isotropic =   283.7038   Anisotropy =    56.4251

     10  O    Isotropic =   307.2322   Anisotropy =    37.1211

     11  O    Isotropic =   294.9528   Anisotropy =    46.9960

     12  H    Isotropic =    27.7024   Anisotropy =     7.5264

     13  H    Isotropic =    27.8169   Anisotropy =    10.8630

     14  H    Isotropic =    27.1590   Anisotropy =     6.6434

     15  H    Isotropic =    26.2299   Anisotropy =     6.4226

     16  H    Isotropic =    28.2042   Anisotropy =     3.6221

     17  H    Isotropic =    28.0541   Anisotropy =     3.1656

     18  H    Isotropic =    28.2471   Anisotropy =     3.6771

     19  H    Isotropic =    30.4354   Anisotropy =    15.9349

     20  H    Isotropic =    29.0412   Anisotropy =    18.2560

     21  H    Isotropic =    29.3136   Anisotropy =    17.9184

 The electronic state is 1-A.
 Alpha  occ. eigenvalues --  -19.27957 -19.27020 -19.26984 -19.26606 -19.26469
 Alpha  occ. eigenvalues --  -10.36170 -10.32142 -10.31808 -10.31384 -10.31294
 Alpha  occ. eigenvalues --  -10.30813  -1.14458  -1.08631  -1.07210  -1.05782
 Alpha  occ. eigenvalues --   -1.04168  -0.82291  -0.81425  -0.70367  -0.68847
 Alpha  occ. eigenvalues --   -0.65264  -0.60393  -0.57893  -0.57217  -0.53379
 Alpha  occ. eigenvalues --   -0.52480  -0.51257  -0.48870  -0.47218  -0.46722
 Alpha  occ. eigenvalues --   -0.45078  -0.43354  -0.41667  -0.40396  -0.39289
 Alpha  occ. eigenvalues --   -0.38080  -0.37087  -0.36519  -0.33528  -0.31965
 Alpha  occ. eigenvalues --   -0.31000  -0.28874  -0.28175
 Alpha virt. eigenvalues --    0.00800   0.01307   0.02022   0.02652   0.03765
 Alpha virt. eigenvalues --    0.04241   0.04571   0.05180   0.05992   0.07691
 Alpha virt. eigenvalues --    0.08240   0.09242   0.09699   0.10185   0.11085

 Mulliken atomic charges:
              1
     1  C   -0.261467
     2  C    0.355292
     3  C   -0.031857
     4  C   -0.047730
     5  C    0.081072
     6  C   -0.183573
     7  O   -0.356055
     8  O   -0.375340
     9  O   -0.554895
    10  O   -0.555860
    11  O   -0.542865
    12  H    0.179410
    13  H    0.178298
    14  H    0.200019
    15  H    0.189180
    16  H    0.188602
    17  H    0.189041
    18  H    0.190755
    19  H    0.381724
    20  H    0.391557
    21  H    0.384693
 Sum of Mulliken atomic charges =   0.00000

 Dipole moment (field-independent basis, Debye):
    X=              0.3504    Y=              3.1682    Z=              0.6275  Tot=              3.2487
 Quadrupole moment (field-independent basis, Debye-Ang):
   XX=            -60.9240   YY=            -69.8098   ZZ=            -66.0977
   XY=             -3.5973   XZ=              3.2473   YZ=              3.3494

 Normal termination of Gaussian 09 at Fri Apr 12 09:58:14 2019.
