 Gaussian 09, Revision C.01,
 Gaussian 09:  EM64L-G09RevC.01 23-Sep-2011

 -----------------------------------------------------------
 # B3LYP/6-31+G** test scrf=(pcm,solvent=water,smd,dovacuum)
 -----------------------------------------------------------

 99/5=1,9=1/99;
 -------
 comment
 -------
 Charge =  0 Multiplicity = 1

                         Standard orientation:
 ---------------------------------------------------------------------
 Center     Atomic      Atomic             Coordinates (Angstroms)
 Number     Number       Type             X           Y           Z
 ---------------------------------------------------------------------
      1          6           0        1.970304    0.661430    0.074163
      2          6           0        0.659663    1.231490   -0.469392
      3          6           0        0.615454   -0.949677   -0.902820
      4          6           0       -0.733772   -0.244226    1.095497
      5          6           0       -0.621044   -1.285783   -0.042934
      6          6           0       -0.506833    1.186758    0.529576
      7          8           0        0.400135    0.294328   -1.535923
      8          8           0        1.771631   -0.769022   -0.055833
      9          8           0       -1.657706    1.602539   -0.219309
     10          8           0        0.147421   -0.543061    2.175563
     11          8           0       -1.779528   -1.302290   -0.864190
     12          1           0        2.167920    0.901609    1.120748
     13          1           0        2.819548    0.969971   -0.543042
     14          1           0        0.754037    2.224451   -0.911361
     15          1           0        0.822274   -1.703022   -1.666354
     16          1           0       -1.749725   -0.289649    1.504573
     17          1           0       -0.520501   -2.284535    0.393754
     18          1           0       -0.306436    1.874203    1.362097
     19          1           0       -2.395907    1.706883    0.403413
     20          1           0        0.966387   -0.883320    1.771248
     21          1           0       -1.915857   -0.376493   -1.142080
 ---------------------------------------------------------------------

 SCF Done:  E(RB3LYP) =  -610.805646928     A.U. after   12 cycles

 The electronic state is 1-A.
 Alpha  occ. eigenvalues --  -19.18526 -19.18350 -19.17418 -19.17028 -19.16726
 Alpha  occ. eigenvalues --  -10.29526 -10.25265 -10.24904 -10.24697 -10.24667
 Alpha  occ. eigenvalues --  -10.24348  -1.11537  -1.04719  -1.03612  -1.03475
 Alpha  occ. eigenvalues --   -1.01111  -0.79654  -0.77473  -0.67939  -0.66314
 Alpha  occ. eigenvalues --   -0.63012  -0.59020  -0.56551  -0.53279  -0.51311
 Alpha  occ. eigenvalues --   -0.50264  -0.47624  -0.47278  -0.45696  -0.44333
 Alpha  occ. eigenvalues --   -0.43484  -0.41795  -0.40370  -0.39178  -0.37860
 Alpha  occ. eigenvalues --   -0.36652  -0.35963  -0.34413  -0.32269  -0.31440
 Alpha  occ. eigenvalues --   -0.29558  -0.27196  -0.26171
 Alpha virt. eigenvalues --    0.00860   0.01411   0.02721   0.02905   0.03847
 Alpha virt. eigenvalues --    0.04568   0.05332   0.05575   0.05879   0.08256
 Alpha virt. eigenvalues --    0.08713   0.09833   0.10219   0.10487   0.11232

 Mulliken atomic charges:
              1
     1  C   -0.150857
     2  C    0.305761
     3  C    0.105528
     4  C   -0.000255
     5  C    0.060909
     6  C   -0.065837
     7  O   -0.452848
     8  O   -0.501632
     9  O   -0.642890
    10  O   -0.581142
    11  O   -0.560213
    12  H    0.185749
    13  H    0.172602
    14  H    0.177494
    15  H    0.172511
    16  H    0.171433
    17  H    0.181905
    18  H    0.173391
    19  H    0.421868
    20  H    0.418321
    21  H    0.408202
 Sum of Mulliken atomic charges =   0.00000

 Dipole moment (field-independent basis, Debye):
    X=              1.2516    Y=              3.2273    Z=              1.8084  Tot=              3.9054
 Quadrupole moment (field-independent basis, Debye-Ang):
   XX=            -61.7447   YY=            -62.5820   ZZ=            -75.1613
   XY=             -1.9841   XZ=             -4.7132   YZ=              3.8316

 Normal termination of Gaussian 09 at Mon Apr 15 17:44:29 2019.
