 Gaussian 09, Revision C.01,
 Gaussian 09:  EM64L-G09RevC.01 23-Sep-2011

 ------------------------------------------------
 # mpw1pw91/6-31+g** nmr scrf=(pcm,solvent=water)
 ------------------------------------------------

 99/9=1/99;
 -------
 comment
 -------
 Charge =  0 Multiplicity = 1

                         Standard orientation:
 ---------------------------------------------------------------------
 Center     Atomic      Atomic             Coordinates (Angstroms)
 Number     Number       Type             X           Y           Z
 ---------------------------------------------------------------------
      1          6           0       -1.925271   -0.740752    0.013757
      2          6           0       -0.683422   -0.964661   -0.864895
      3          6           0       -0.761767    1.199486   -0.389850
      4          6           0        0.864022   -0.180320    1.007362
      5          6           0        0.522889    1.225579    0.463144
      6          6           0        0.596851   -1.263511   -0.073710
      7          8           0       -0.547864    0.327474   -1.488896
      8          8           0       -1.870311    0.667067    0.320694
      9          8           0        1.653636   -1.266506   -1.039791
     10          8           0        0.104631   -0.405084    2.192123
     11          8           0        1.591509    1.722708   -0.336543
     12          1           0       -1.913844   -1.317947    0.939952
     13          1           0       -2.844357   -0.948687   -0.544332
     14          1           0       -0.827165   -1.704699   -1.654092
     15          1           0       -1.005845    2.193465   -0.774056
     16          1           0        1.939303   -0.183105    1.239124
     17          1           0        0.402374    1.913168    1.305252
     18          1           0        0.505687   -2.247762    0.409337
     19          1           0        2.464628   -1.557025   -0.591100
     20          1           0        0.428134   -1.227362    2.594944
     21          1           0        1.718480    1.059759   -1.040578
 ---------------------------------------------------------------------

 SCF Done:  E(RmPW1PW91) =  -610.646599716     A.U. after   12 cycles

      1  C    Isotropic =   129.7850   Anisotropy =    64.0973

      2  C    Isotropic =   118.6151   Anisotropy =    48.1982

      3  C    Isotropic =    91.8339   Anisotropy =    34.0192

      4  C    Isotropic =   120.1330   Anisotropy =    49.4717

      5  C    Isotropic =   124.6197   Anisotropy =    46.1998

      6  C    Isotropic =   122.2287   Anisotropy =    49.7617

      7  O    Isotropic =   255.8282   Anisotropy =    59.6101

      8  O    Isotropic =   265.9834   Anisotropy =   104.6898

      9  O    Isotropic =   284.3312   Anisotropy =    54.7592

     10  O    Isotropic =   286.5741   Anisotropy =    62.6116

     11  O    Isotropic =   286.4180   Anisotropy =    22.4629

     12  H    Isotropic =    27.1644   Anisotropy =     5.9102

     13  H    Isotropic =    27.6696   Anisotropy =    11.1429

     14  H    Isotropic =    26.9682   Anisotropy =     8.1569

     15  H    Isotropic =    26.0977   Anisotropy =     7.6874

     16  H    Isotropic =    27.7550   Anisotropy =     4.3141

     17  H    Isotropic =    28.1064   Anisotropy =     5.5148

     18  H    Isotropic =    27.9395   Anisotropy =     5.7325

     19  H    Isotropic =    29.7736   Anisotropy =    18.6732

     20  H    Isotropic =    29.9746   Anisotropy =    18.8916

     21  H    Isotropic =    28.7218   Anisotropy =    14.5553

 The electronic state is 1-A.
 Alpha  occ. eigenvalues --  -19.27551 -19.27048 -19.26646 -19.26481 -19.25982
 Alpha  occ. eigenvalues --  -10.35518 -10.31826 -10.31794 -10.31591 -10.31008
 Alpha  occ. eigenvalues --  -10.30439  -1.14251  -1.08025  -1.06794  -1.06328
 Alpha  occ. eigenvalues --   -1.03695  -0.82256  -0.80259  -0.70511  -0.68620
 Alpha  occ. eigenvalues --   -0.64980  -0.60466  -0.57660  -0.55723  -0.54596
 Alpha  occ. eigenvalues --   -0.52570  -0.49081  -0.48234  -0.47662  -0.46351
 Alpha  occ. eigenvalues --   -0.44555  -0.43357  -0.42260  -0.41234  -0.38580
 Alpha  occ. eigenvalues --   -0.37665  -0.36651  -0.36059  -0.33415  -0.32352
 Alpha  occ. eigenvalues --   -0.30364  -0.28679  -0.27411
 Alpha virt. eigenvalues --    0.00537   0.01463   0.02072   0.02755   0.03758
 Alpha virt. eigenvalues --    0.04285   0.05234   0.05339   0.06064   0.08101
 Alpha virt. eigenvalues --    0.08650   0.09445   0.09957   0.10089   0.11419

 Mulliken atomic charges:
              1
     1  C   -0.213376
     2  C    0.308690
     3  C   -0.047312
     4  C   -0.048135
     5  C    0.057796
     6  C   -0.149261
     7  O   -0.381689
     8  O   -0.359966
     9  O   -0.582516
    10  O   -0.540042
    11  O   -0.500700
    12  H    0.187188
    13  H    0.174104
    14  H    0.189720
    15  H    0.182674
    16  H    0.179421
    17  H    0.184936
    18  H    0.179373
    19  H    0.396621
    20  H    0.390461
    21  H    0.392013
 Sum of Mulliken atomic charges =   0.00000

 Dipole moment (field-independent basis, Debye):
    X=              1.4979    Y=             -5.8201    Z=              1.9010  Tot=              6.3032
 Quadrupole moment (field-independent basis, Debye-Ang):
   XX=            -63.0916   YY=            -59.6772   ZZ=            -69.1089
   XY=             -3.7617   XZ=              5.8879   YZ=             -4.5280

 Normal termination of Gaussian 09 at Fri Apr 12 10:23:45 2019.
