 Gaussian 09, Revision C.01,
 Gaussian 09:  EM64L-G09RevC.01 23-Sep-2011

 ------------------------------------------------
 # mpw1pw91/6-31+g** nmr scrf=(pcm,solvent=water)
 ------------------------------------------------

 99/9=1/99;
 -------
 comment
 -------
 Charge =  0 Multiplicity = 1

                         Standard orientation:
 ---------------------------------------------------------------------
 Center     Atomic      Atomic             Coordinates (Angstroms)
 Number     Number       Type             X           Y           Z
 ---------------------------------------------------------------------
      1          6           0       -1.931893   -0.716048    0.104087
      2          6           0       -0.682645   -1.079950   -0.715398
      3          6           0       -0.745874    1.131345   -0.575642
      4          6           0        0.853120   -0.041315    1.034012
      5          6           0        0.530818    1.274277    0.277632
      6          6           0        0.588281   -1.265336    0.125531
      7          8           0       -0.530876    0.101401   -1.527168
      8          8           0       -1.864325    0.721917    0.199140
      9          8           0        1.653957   -1.416180   -0.817983
     10          8           0        0.086900   -0.224487    2.219252
     11          8           0        1.615759    1.631424   -0.573279
     12          1           0       -1.937302   -1.148913    1.105540
     13          1           0       -2.846188   -0.995567   -0.430114
     14          1           0       -0.824794   -1.930702   -1.383932
     15          1           0       -0.977213    2.057403   -1.108805
     16          1           0        1.927078   -0.015850    1.274654
     17          1           0        0.408977    2.094552    0.994164
     18          1           0        0.485856   -2.159032    0.755871
     19          1           0        2.454395   -1.659466   -0.324545
     20          1           0        0.194239    0.566898    2.771063
     21          1           0        1.752791    0.860240   -1.154928
 ---------------------------------------------------------------------

 SCF Done:  E(RmPW1PW91) =  -610.646724885     A.U. after   12 cycles

      1  C    Isotropic =   129.7928   Anisotropy =    63.8178

      2  C    Isotropic =   118.2676   Anisotropy =    47.8505

      3  C    Isotropic =    91.9939   Anisotropy =    34.4370

      4  C    Isotropic =   120.0799   Anisotropy =    49.5862

      5  C    Isotropic =   123.1713   Anisotropy =    45.3809

      6  C    Isotropic =   123.7718   Anisotropy =    51.0589

      7  O    Isotropic =   256.4166   Anisotropy =    58.0964

      8  O    Isotropic =   265.9970   Anisotropy =   103.1928

      9  O    Isotropic =   285.3975   Anisotropy =    59.1806

     10  O    Isotropic =   286.5109   Anisotropy =    69.3250

     11  O    Isotropic =   286.8348   Anisotropy =    22.2961

     12  H    Isotropic =    27.1791   Anisotropy =     5.9433

     13  H    Isotropic =    27.6918   Anisotropy =    11.1591

     14  H    Isotropic =    26.9511   Anisotropy =     8.1737

     15  H    Isotropic =    26.0829   Anisotropy =     7.6840

     16  H    Isotropic =    27.7070   Anisotropy =     4.5098

     17  H    Isotropic =    28.3296   Anisotropy =     5.4515

     18  H    Isotropic =    27.7497   Anisotropy =     5.7051

     19  H    Isotropic =    29.7854   Anisotropy =    18.9031

     20  H    Isotropic =    30.1673   Anisotropy =    18.2968

     21  H    Isotropic =    28.6695   Anisotropy =    14.9414

 The electronic state is 1-A.
 Alpha  occ. eigenvalues --  -19.27560 -19.27038 -19.26671 -19.26476 -19.26050
 Alpha  occ. eigenvalues --  -10.35566 -10.31833 -10.31784 -10.31588 -10.31129
 Alpha  occ. eigenvalues --  -10.30400  -1.14261  -1.08067  -1.06821  -1.06368
 Alpha  occ. eigenvalues --   -1.03705  -0.82336  -0.80179  -0.70536  -0.68717
 Alpha  occ. eigenvalues --   -0.65091  -0.60541  -0.57799  -0.55836  -0.54292
 Alpha  occ. eigenvalues --   -0.51589  -0.49527  -0.49096  -0.47640  -0.46183
 Alpha  occ. eigenvalues --   -0.45072  -0.43177  -0.41329  -0.40958  -0.39580
 Alpha  occ. eigenvalues --   -0.38477  -0.36546  -0.35412  -0.33379  -0.31902
 Alpha  occ. eigenvalues --   -0.30211  -0.29750  -0.26966
 Alpha virt. eigenvalues --    0.00715   0.01245   0.02256   0.02737   0.03714
 Alpha virt. eigenvalues --    0.04240   0.05249   0.05538   0.05973   0.08149
 Alpha virt. eigenvalues --    0.08488   0.09432   0.10017   0.10184   0.11334

 Mulliken atomic charges:
              1
     1  C   -0.214997
     2  C    0.347640
     3  C   -0.095009
     4  C    0.002342
     5  C    0.045648
     6  C   -0.179626
     7  O   -0.378942
     8  O   -0.355123
     9  O   -0.585140
    10  O   -0.544346
    11  O   -0.502779
    12  H    0.189680
    13  H    0.173924
    14  H    0.189766
    15  H    0.183120
    16  H    0.177589
    17  H    0.179660
    18  H    0.186931
    19  H    0.397538
    20  H    0.388416
    21  H    0.393708
 Sum of Mulliken atomic charges =   0.00000

 Dipole moment (field-independent basis, Debye):
    X=              1.0080    Y=             -2.4601    Z=              2.8278  Tot=              3.8813
 Quadrupole moment (field-independent basis, Debye-Ang):
   XX=            -63.5487   YY=            -61.8015   ZZ=            -67.1199
   XY=             -1.8702   XZ=              5.1285   YZ=              3.4524

 Normal termination of Gaussian 09 at Fri Apr 12 10:07:50 2019.
