 Gaussian 09, Revision C.01,
 Gaussian 09:  EM64L-G09RevC.01 23-Sep-2011

 ------------------------------------------------
 # mpw1pw91/6-31+g** nmr scrf=(pcm,solvent=water)
 ------------------------------------------------

 99/9=1/99;
 -------
 comment
 -------
 Charge =  0 Multiplicity = 1

                         Standard orientation:
 ---------------------------------------------------------------------
 Center     Atomic      Atomic             Coordinates (Angstroms)
 Number     Number       Type             X           Y           Z
 ---------------------------------------------------------------------
      1          6           0        2.142015    0.515645    0.661784
      2          6           0        1.134638    0.998593   -0.383870
      3          6           0        0.918959   -1.204861   -0.267276
      4          6           0       -1.195860    0.107829   -0.067523
      5          6           0       -0.538577   -1.240560    0.251061
      6          6           0       -0.265440    1.296976    0.209571
      7          8           0        1.073880   -0.174559   -1.227908
      8          8           0        1.803964   -0.876212    0.805887
      9          8           0       -0.777075    2.478016   -0.398831
     10          8           0       -2.471713    0.265809    0.553333
     11          8           0       -1.224430   -2.303457   -0.400604
     12          1           0        2.050070    1.012794    1.631095
     13          1           0        3.170699    0.614257    0.296461
     14          1           0        1.480286    1.837539   -0.988801
     15          1           0        1.204408   -2.159024   -0.717667
     16          1           0       -1.404383    0.111330   -1.140823
     17          1           0       -0.511882   -1.408234    1.338269
     18          1           0       -0.181138    1.447418    1.298314
     19          1           0       -1.710217    2.536184   -0.128641
     20          1           0       -2.343079    0.245864    1.517641
     21          1           0       -2.166184   -2.196639   -0.183353
 ---------------------------------------------------------------------

 SCF Done:  E(RmPW1PW91) =  -610.644590138     A.U. after   12 cycles

      1  C    Isotropic =   126.4553   Anisotropy =    44.8676

      2  C    Isotropic =   115.9560   Anisotropy =    43.0790

      3  C    Isotropic =    91.3442   Anisotropy =    24.2902

      4  C    Isotropic =   116.0708   Anisotropy =    18.5510

      5  C    Isotropic =   116.9767   Anisotropy =    26.1350

      6  C    Isotropic =   118.3258   Anisotropy =    24.8566

      7  O    Isotropic =   245.6364   Anisotropy =    49.0512

      8  O    Isotropic =   259.0707   Anisotropy =   128.8290

      9  O    Isotropic =   293.8066   Anisotropy =    53.8954

     10  O    Isotropic =   306.1323   Anisotropy =   108.4177

     11  O    Isotropic =   297.0032   Anisotropy =    47.8924

     12  H    Isotropic =    27.7276   Anisotropy =     7.5747

     13  H    Isotropic =    27.8422   Anisotropy =    10.9603

     14  H    Isotropic =    27.0713   Anisotropy =     6.7299

     15  H    Isotropic =    26.1888   Anisotropy =     6.5475

     16  H    Isotropic =    28.2988   Anisotropy =     3.2761

     17  H    Isotropic =    28.2540   Anisotropy =     3.2196

     18  H    Isotropic =    28.1190   Anisotropy =     4.0336

     19  H    Isotropic =    29.0621   Anisotropy =    18.0086

     20  H    Isotropic =    31.0349   Anisotropy =    18.3777

     21  H    Isotropic =    29.2803   Anisotropy =    17.8296

 The electronic state is 1-A.
 Alpha  occ. eigenvalues --  -19.27936 -19.27349 -19.26999 -19.26542 -19.26457
 Alpha  occ. eigenvalues --  -10.36203 -10.32142 -10.31821 -10.31439 -10.31391
 Alpha  occ. eigenvalues --  -10.30771  -1.14468  -1.08808  -1.07124  -1.05918
 Alpha  occ. eigenvalues --   -1.04148  -0.82414  -0.81392  -0.70261  -0.69284
 Alpha  occ. eigenvalues --   -0.64674  -0.61084  -0.58251  -0.54961  -0.54438
 Alpha  occ. eigenvalues --   -0.52864  -0.51365  -0.50391  -0.46518  -0.45531
 Alpha  occ. eigenvalues --   -0.44622  -0.43821  -0.42925  -0.41014  -0.38223
 Alpha  occ. eigenvalues --   -0.37570  -0.37080  -0.36867  -0.33644  -0.32252
 Alpha  occ. eigenvalues --   -0.30487  -0.29555  -0.28024
 Alpha virt. eigenvalues --    0.00668   0.01357   0.02236   0.02556   0.03747
 Alpha virt. eigenvalues --    0.04307   0.04597   0.05509   0.05675   0.07638
 Alpha virt. eigenvalues --    0.08373   0.09090   0.09816   0.10063   0.11339

 Mulliken atomic charges:
              1
     1  C   -0.252648
     2  C    0.347509
     3  C   -0.030737
     4  C   -0.164554
     5  C    0.077451
     6  C   -0.070466
     7  O   -0.358203
     8  O   -0.376294
     9  O   -0.540749
    10  O   -0.565792
    11  O   -0.534818
    12  H    0.179983
    13  H    0.177995
    14  H    0.200547
    15  H    0.189515
    16  H    0.210468
    17  H    0.184452
    18  H    0.173606
    19  H    0.382561
    20  H    0.385790
    21  H    0.384383
 Sum of Mulliken atomic charges =   0.00000

 Dipole moment (field-independent basis, Debye):
    X=             -0.8428    Y=              1.7764    Z=              3.9767  Tot=              4.4362
 Quadrupole moment (field-independent basis, Debye-Ang):
   XX=            -61.6027   YY=            -71.2429   ZZ=            -64.6898
   XY=              3.9400   XZ=             -4.3753   YZ=              2.5645

 Normal termination of Gaussian 09 at Fri Apr 12 10:04:27 2019.
