 Gaussian 09, Revision C.01,
 Gaussian 09:  EM64L-G09RevC.01 23-Sep-2011

 ------------------------------------------------
 # mpw1pw91/6-31+g** nmr scrf=(pcm,solvent=water)
 ------------------------------------------------

 99/9=1/99;
 -------
 comment
 -------
 Charge =  0 Multiplicity = 1

                         Standard orientation:
 ---------------------------------------------------------------------
 Center     Atomic      Atomic             Coordinates (Angstroms)
 Number     Number       Type             X           Y           Z
 ---------------------------------------------------------------------
      1          6           0        2.006919    0.488881    0.153243
      2          6           0        0.819785    1.060180   -0.636993
      3          6           0        0.608308   -1.147172   -0.651156
      4          6           0       -0.851350    0.104769    1.032425
      5          6           0       -0.659511   -1.204524    0.220142
      6          6           0       -0.454629    1.334268    0.182013
      7          8           0        0.527243   -0.039202   -1.528616
      8          8           0        1.760838   -0.934112    0.149676
      9          8           0       -1.514149    1.684898   -0.701941
     10          8           0       -0.078229    0.139860    2.226609
     11          8           0       -1.739762   -1.377791   -0.700539
     12          1           0        2.057926    0.847541    1.182279
     13          1           0        2.953947    0.686173   -0.360315
     14          1           0        1.073807    1.927619   -1.248674
     15          1           0        0.725024   -2.057065   -1.245803
     16          1           0       -1.922454    0.200575    1.267851
     17          1           0       -0.584365   -2.061087    0.906090
     18          1           0       -0.300999    2.188303    0.849301
     19          1           0       -1.673664    0.890443   -1.244200
     20          1           0       -0.248313   -0.678161    2.721245
     21          1           0       -2.545575   -1.551979   -0.187331
 ---------------------------------------------------------------------

 SCF Done:  E(RmPW1PW91) =  -610.646501417     A.U. after   12 cycles

      1  C    Isotropic =   130.0610   Anisotropy =    63.7812

      2  C    Isotropic =   116.6441   Anisotropy =    44.8147

      3  C    Isotropic =    93.2283   Anisotropy =    34.7161

      4  C    Isotropic =   119.8477   Anisotropy =    49.1276

      5  C    Isotropic =   122.5024   Anisotropy =    43.7098

      6  C    Isotropic =   124.6157   Anisotropy =    51.7508

      7  O    Isotropic =   256.4000   Anisotropy =    57.9432

      8  O    Isotropic =   265.7974   Anisotropy =   108.1157

      9  O    Isotropic =   285.5180   Anisotropy =    37.3793

     10  O    Isotropic =   287.4378   Anisotropy =    72.6546

     11  O    Isotropic =   288.1290   Anisotropy =    51.9601

     12  H    Isotropic =    27.1156   Anisotropy =     5.8935

     13  H    Isotropic =    27.6951   Anisotropy =    11.1536

     14  H    Isotropic =    27.0196   Anisotropy =     8.3123

     15  H    Isotropic =    26.0068   Anisotropy =     7.6042

     16  H    Isotropic =    27.7150   Anisotropy =     4.5303

     17  H    Isotropic =    28.0601   Anisotropy =     5.1434

     18  H    Isotropic =    28.0043   Anisotropy =     5.9038

     19  H    Isotropic =    28.2971   Anisotropy =    14.3785

     20  H    Isotropic =    30.2682   Anisotropy =    18.1508

     21  H    Isotropic =    29.7959   Anisotropy =    19.1213

 The electronic state is 1-A.
 Alpha  occ. eigenvalues --  -19.27613 -19.27185 -19.26741 -19.26469 -19.25838
 Alpha  occ. eigenvalues --  -10.35894 -10.31664 -10.31558 -10.31502 -10.31299
 Alpha  occ. eigenvalues --  -10.30353  -1.14332  -1.08046  -1.06850  -1.06431
 Alpha  occ. eigenvalues --   -1.03678  -0.82006  -0.80498  -0.70668  -0.68539
 Alpha  occ. eigenvalues --   -0.65061  -0.60532  -0.57654  -0.55765  -0.54327
 Alpha  occ. eigenvalues --   -0.52778  -0.49419  -0.48190  -0.47009  -0.46218
 Alpha  occ. eigenvalues --   -0.44916  -0.43357  -0.42797  -0.41369  -0.38936
 Alpha  occ. eigenvalues --   -0.37395  -0.36733  -0.36190  -0.33016  -0.32044
 Alpha  occ. eigenvalues --   -0.30010  -0.28852  -0.27821
 Alpha virt. eigenvalues --    0.00620   0.01454   0.02081   0.02818   0.03675
 Alpha virt. eigenvalues --    0.04291   0.05213   0.05438   0.05986   0.08009
 Alpha virt. eigenvalues --    0.08744   0.09535   0.09784   0.10219   0.11669

 Mulliken atomic charges:
              1
     1  C   -0.231787
     2  C    0.383346
     3  C   -0.123456
     4  C    0.020362
     5  C    0.128169
     6  C   -0.272971
     7  O   -0.383512
     8  O   -0.352164
     9  O   -0.513400
    10  O   -0.541960
    11  O   -0.568445
    12  H    0.190483
    13  H    0.173751
    14  H    0.190303
    15  H    0.183421
    16  H    0.176410
    17  H    0.178739
    18  H    0.184180
    19  H    0.392323
    20  H    0.386596
    21  H    0.399609
 Sum of Mulliken atomic charges =   0.00000

 Dipole moment (field-independent basis, Debye):
    X=             -0.9822    Y=             -1.9354    Z=              2.9554  Tot=              3.6667
 Quadrupole moment (field-independent basis, Debye-Ang):
   XX=            -61.7707   YY=            -63.3809   ZZ=            -67.4524
   XY=             11.4648   XZ=             -5.5653   YZ=             -3.9608

 Normal termination of Gaussian 09 at Fri Apr 12 10:18:30 2019.
