 Gaussian 09, Revision C.01,
 Gaussian 09:  EM64L-G09RevC.01 23-Sep-2011

 ------------------------------------------------
 # mpw1pw91/6-31+g** nmr scrf=(pcm,solvent=water)
 ------------------------------------------------

 99/9=1/99;
 -------
 comment
 -------
 Charge =  0 Multiplicity = 1

                         Standard orientation:
 ---------------------------------------------------------------------
 Center     Atomic      Atomic             Coordinates (Angstroms)
 Number     Number       Type             X           Y           Z
 ---------------------------------------------------------------------
      1          6           0        1.959782    0.691266   -0.091926
      2          6           0        0.630805    1.117941   -0.713380
      3          6           0        0.631314   -1.110469   -0.682385
      4          6           0       -0.728124   -0.029086    1.135140
      5          6           0       -0.609378   -1.268740    0.219412
      6          6           0       -0.519491    1.269235    0.302683
      7          8           0        0.379687   -0.032576   -1.564471
      8          8           0        1.776442   -0.737734    0.096800
      9          8           0       -1.724460    1.633443   -0.367610
     10          8           0        0.156335   -0.121887    2.247493
     11          8           0       -1.777520   -1.378614   -0.604780
     12          1           0        2.172585    1.150305    0.875479
     13          1           0        2.796243    0.861502   -0.776082
     14          1           0        0.699572    1.995407   -1.357445
     15          1           0        0.850457   -2.004276   -1.272721
     16          1           0       -1.742280    0.008722    1.545348
     17          1           0       -0.530377   -2.169768    0.837886
     18          1           0       -0.280670    2.088166    0.989560
     19          1           0       -2.111840    0.809188   -0.710248
     20          1           0        0.987342   -0.500759    1.907567
     21          1           0       -1.514354   -1.160434   -1.516068
 ---------------------------------------------------------------------

 SCF Done:  E(RmPW1PW91) =  -610.645370406     A.U. after   12 cycles

      1  C    Isotropic =   128.8335   Anisotropy =    61.1279

      2  C    Isotropic =   114.7828   Anisotropy =    44.9138

      3  C    Isotropic =    93.1962   Anisotropy =    40.1895

      4  C    Isotropic =   122.3295   Anisotropy =    52.6916

      5  C    Isotropic =   125.1723   Anisotropy =    51.4189

      6  C    Isotropic =   122.0170   Anisotropy =    49.9671

      7  O    Isotropic =   256.1712   Anisotropy =    68.5627

      8  O    Isotropic =   264.7108   Anisotropy =   103.9958

      9  O    Isotropic =   284.8154   Anisotropy =    44.9178

     10  O    Isotropic =   288.1983   Anisotropy =    39.4915

     11  O    Isotropic =   292.8643   Anisotropy =    35.7572

     12  H    Isotropic =    27.3397   Anisotropy =     7.0765

     13  H    Isotropic =    27.6012   Anisotropy =    11.3548

     14  H    Isotropic =    26.9437   Anisotropy =     7.9767

     15  H    Isotropic =    25.9444   Anisotropy =     7.9186

     16  H    Isotropic =    27.7992   Anisotropy =     4.9436

     17  H    Isotropic =    27.8047   Anisotropy =     6.0505

     18  H    Isotropic =    27.9403   Anisotropy =     5.7960

     19  H    Isotropic =    28.7090   Anisotropy =    16.0295

     20  H    Isotropic =    28.0582   Anisotropy =    16.6007

     21  H    Isotropic =    29.4070   Anisotropy =    13.1848

 The electronic state is 1-A.
 Alpha  occ. eigenvalues --  -19.28816 -19.28600 -19.27504 -19.26176 -19.26031
 Alpha  occ. eigenvalues --  -10.37047 -10.32232 -10.31975 -10.31566 -10.31560
 Alpha  occ. eigenvalues --  -10.31538  -1.15472  -1.08228  -1.06955  -1.06597
 Alpha  occ. eigenvalues --   -1.04630  -0.82924  -0.80748  -0.70918  -0.69188
 Alpha  occ. eigenvalues --   -0.66249  -0.61699  -0.59517  -0.55705  -0.53198
 Alpha  occ. eigenvalues --   -0.52253  -0.50309  -0.49615  -0.47628  -0.46757
 Alpha  occ. eigenvalues --   -0.46305  -0.44279  -0.41820  -0.40978  -0.39875
 Alpha  occ. eigenvalues --   -0.38125  -0.37778  -0.37215  -0.34062  -0.33571
 Alpha  occ. eigenvalues --   -0.30404  -0.28913  -0.28418
 Alpha virt. eigenvalues --    0.00747   0.01190   0.02677   0.02812   0.03812
 Alpha virt. eigenvalues --    0.04174   0.04937   0.05228   0.05766   0.08025
 Alpha virt. eigenvalues --    0.08759   0.09678   0.09867   0.10215   0.11270

 Mulliken atomic charges:
              1
     1  C   -0.204246
     2  C    0.351737
     3  C   -0.042584
     4  C   -0.016527
     5  C    0.069949
     6  C   -0.279713
     7  O   -0.419631
     8  O   -0.440849
     9  O   -0.513176
    10  O   -0.517137
    11  O   -0.525006
    12  H    0.194346
    13  H    0.189801
    14  H    0.196895
    15  H    0.201546
    16  H    0.194851
    17  H    0.196539
    18  H    0.188447
    19  H    0.383378
    20  H    0.400830
    21  H    0.390550
 Sum of Mulliken atomic charges =   0.00000

 Dipole moment (field-independent basis, Debye):
    X=              3.0226    Y=             -0.2906    Z=             -1.8659  Tot=              3.5640
 Quadrupole moment (field-independent basis, Debye-Ang):
   XX=            -67.2566   YY=            -64.1841   ZZ=            -70.3801
   XY=              5.4933   XZ=              0.5559   YZ=              1.7632

 Normal termination of Gaussian 09 at Fri Apr 12 10:26:03 2019.
