 Gaussian 09, Revision C.01,
 Gaussian 09:  EM64L-G09RevC.01 23-Sep-2011

 -----------------------------------------------------------
 # B3LYP/6-31+G** test scrf=(pcm,solvent=water,smd,dovacuum)
 -----------------------------------------------------------

 99/5=1,9=1/99;
 -------
 comment
 -------
 Charge =  0 Multiplicity = 1

                         Standard orientation:
 ---------------------------------------------------------------------
 Center     Atomic      Atomic             Coordinates (Angstroms)
 Number     Number       Type             X           Y           Z
 ---------------------------------------------------------------------
      1          6           0       -1.925271   -0.740752    0.013757
      2          6           0       -0.683422   -0.964661   -0.864895
      3          6           0       -0.761767    1.199486   -0.389850
      4          6           0        0.864022   -0.180320    1.007362
      5          6           0        0.522889    1.225579    0.463144
      6          6           0        0.596851   -1.263511   -0.073710
      7          8           0       -0.547864    0.327474   -1.488896
      8          8           0       -1.870311    0.667067    0.320694
      9          8           0        1.653636   -1.266506   -1.039791
     10          8           0        0.104631   -0.405084    2.192123
     11          8           0        1.591509    1.722708   -0.336543
     12          1           0       -1.913844   -1.317947    0.939952
     13          1           0       -2.844357   -0.948687   -0.544332
     14          1           0       -0.827165   -1.704699   -1.654092
     15          1           0       -1.005845    2.193465   -0.774056
     16          1           0        1.939303   -0.183105    1.239124
     17          1           0        0.402374    1.913168    1.305252
     18          1           0        0.505687   -2.247762    0.409337
     19          1           0        2.464628   -1.557025   -0.591100
     20          1           0        0.428134   -1.227362    2.594944
     21          1           0        1.718480    1.059759   -1.040578
 ---------------------------------------------------------------------

 SCF Done:  E(RB3LYP) =  -610.805578060     A.U. after   12 cycles

 The electronic state is 1-A.
 Alpha  occ. eigenvalues --  -19.18193 -19.17544 -19.17231 -19.16969 -19.16928
 Alpha  occ. eigenvalues --  -10.29165 -10.25004 -10.24793 -10.24694 -10.24482
 Alpha  occ. eigenvalues --  -10.23872  -1.11216  -1.04703  -1.03461  -1.03357
 Alpha  occ. eigenvalues --   -1.00952  -0.79305  -0.77443  -0.67861  -0.66008
 Alpha  occ. eigenvalues --   -0.62638  -0.58289  -0.55480  -0.53577  -0.52259
 Alpha  occ. eigenvalues --   -0.50638  -0.47117  -0.46259  -0.45848  -0.44451
 Alpha  occ. eigenvalues --   -0.42861  -0.41564  -0.40514  -0.39649  -0.37022
 Alpha  occ. eigenvalues --   -0.36212  -0.35254  -0.34507  -0.32065  -0.30670
 Alpha  occ. eigenvalues --   -0.29000  -0.27082  -0.26264
 Alpha virt. eigenvalues --    0.00694   0.01485   0.02286   0.02923   0.03849
 Alpha virt. eigenvalues --    0.04498   0.05393   0.05455   0.06190   0.08183
 Alpha virt. eigenvalues --    0.08757   0.09539   0.10237   0.10294   0.11548

 Mulliken atomic charges:
              1
     1  C   -0.176784
     2  C    0.337964
     3  C    0.073276
     4  C    0.055296
     5  C    0.065777
     6  C   -0.087719
     7  O   -0.448902
     8  O   -0.442003
     9  O   -0.640322
    10  O   -0.607207
    11  O   -0.563164
    12  H    0.177096
    13  H    0.164638
    14  H    0.173910
    15  H    0.168522
    16  H    0.166939
    17  H    0.173676
    18  H    0.169406
    19  H    0.418658
    20  H    0.415546
    21  H    0.405396
 Sum of Mulliken atomic charges =   0.00000

 Dipole moment (field-independent basis, Debye):
    X=              1.7455    Y=             -6.4246    Z=              2.1101  Tot=              6.9839
 Quadrupole moment (field-independent basis, Debye-Ang):
   XX=            -63.5148   YY=            -59.7719   ZZ=            -70.3467
   XY=             -4.0350   XZ=              6.6324   YZ=             -5.0531

 Normal termination of Gaussian 09 at Mon Apr 15 17:52:56 2019.
