 Gaussian 09, Revision C.01,
 Gaussian 09:  EM64L-G09RevC.01 23-Sep-2011

 -----------------------------------------------------------
 # B3LYP/6-31+G** test scrf=(pcm,solvent=water,smd,dovacuum)
 -----------------------------------------------------------

 99/5=1,9=1/99;
 -------
 comment
 -------
 Charge =  0 Multiplicity = 1

                         Standard orientation:
 ---------------------------------------------------------------------
 Center     Atomic      Atomic             Coordinates (Angstroms)
 Number     Number       Type             X           Y           Z
 ---------------------------------------------------------------------
      1          6           0        2.023719    0.513243    0.010755
      2          6           0        0.752113    1.178624   -0.514583
      3          6           0        0.511982   -1.000077   -0.883327
      4          6           0       -0.722626   -0.128681    1.124924
      5          6           0       -0.708833   -1.223542    0.036848
      6          6           0       -0.411893    1.257565    0.491856
      7          8           0        0.385675    0.234410   -1.548879
      8          8           0        1.699203   -0.899515   -0.068764
      9          8           0       -1.569226    1.763429   -0.167820
     10          8           0        0.156643   -0.459408    2.195953
     11          8           0       -1.925309   -1.088710   -0.698129
     12          1           0        2.270375    0.764086    1.044440
     13          1           0        2.880282    0.725438   -0.636371
     14          1           0        0.919495    2.145893   -0.990617
     15          1           0        0.640116   -1.790376   -1.629148
     16          1           0       -1.729589   -0.071526    1.549864
     17          1           0       -0.641253   -2.209649    0.516326
     18          1           0       -0.166541    1.962441    1.292701
     19          1           0       -1.852534    1.056560   -0.778273
     20          1           0        0.940816   -0.871395    1.790066
     21          1           0       -1.903817   -1.695905   -1.456703
 ---------------------------------------------------------------------

 SCF Done:  E(RB3LYP) =  -610.804611947     A.U. after   12 cycles

 The electronic state is 1-A.
 Alpha  occ. eigenvalues --  -19.18515 -19.18393 -19.17732 -19.16755 -19.16684
 Alpha  occ. eigenvalues --  -10.29729 -10.25034 -10.25007 -10.24789 -10.24582
 Alpha  occ. eigenvalues --  -10.24341  -1.11553  -1.04818  -1.03657  -1.03462
 Alpha  occ. eigenvalues --   -1.01095  -0.79426  -0.77758  -0.67886  -0.66247
 Alpha  occ. eigenvalues --   -0.63259  -0.58949  -0.56278  -0.53288  -0.51926
 Alpha  occ. eigenvalues --   -0.49802  -0.47746  -0.46988  -0.45941  -0.44371
 Alpha  occ. eigenvalues --   -0.44144  -0.42147  -0.39929  -0.39377  -0.37377
 Alpha  occ. eigenvalues --   -0.36485  -0.36237  -0.34439  -0.32211  -0.31011
 Alpha  occ. eigenvalues --   -0.29271  -0.27114  -0.26722
 Alpha virt. eigenvalues --    0.00820   0.01310   0.02746   0.02998   0.03814
 Alpha virt. eigenvalues --    0.04659   0.05212   0.05462   0.06021   0.08275
 Alpha virt. eigenvalues --    0.08675   0.09774   0.10098   0.10593   0.11611

 Mulliken atomic charges:
              1
     1  C   -0.170394
     2  C    0.332749
     3  C    0.027488
     4  C   -0.044785
     5  C    0.174541
     6  C   -0.072941
     7  O   -0.447084
     8  O   -0.496307
     9  O   -0.590175
    10  O   -0.576102
    11  O   -0.613507
    12  H    0.185751
    13  H    0.172943
    14  H    0.175783
    15  H    0.176392
    16  H    0.173788
    17  H    0.177624
    18  H    0.172797
    19  H    0.407158
    20  H    0.417170
    21  H    0.417109
 Sum of Mulliken atomic charges =   0.00000

 Dipole moment (field-independent basis, Debye):
    X=              2.7572    Y=             -2.3164    Z=             -2.1669  Tot=              4.2028
 Quadrupole moment (field-independent basis, Debye-Ang):
   XX=            -67.2936   YY=            -61.4269   ZZ=            -71.0588
   XY=             10.4885   XZ=              3.2439   YZ=              6.2777

 Normal termination of Gaussian 09 at Mon Apr 15 17:50:14 2019.
