 Gaussian 09, Revision C.01,
 Gaussian 09:  EM64L-G09RevC.01 23-Sep-2011

 -----------------------------------------------------------
 # B3LYP/6-31+G** test scrf=(pcm,solvent=water,smd,dovacuum)
 -----------------------------------------------------------

 99/5=1,9=1/99;
 -------
 comment
 -------
 Charge =  0 Multiplicity = 1

                         Standard orientation:
 ---------------------------------------------------------------------
 Center     Atomic      Atomic             Coordinates (Angstroms)
 Number     Number       Type             X           Y           Z
 ---------------------------------------------------------------------
      1          6           0       -2.003381   -0.519938    0.073213
      2          6           0       -0.820165   -0.930320   -0.817336
      3          6           0       -0.618351    1.243666   -0.429314
      4          6           0        0.854639   -0.277078    0.993665
      5          6           0        0.653991    1.149883    0.432213
      6          6           0        0.460030   -1.339581   -0.066981
      7          8           0       -0.538582    0.313965   -1.495107
      8          8           0       -1.767013    0.882134    0.321889
      9          8           0        1.520317   -1.512858   -1.002749
     10          8           0        0.096214   -0.389849    2.194995
     11          8           0        1.726090    1.491307   -0.451776
     12          1           0       -2.040679   -1.056927    1.022400
     13          1           0       -2.955117   -0.630932   -0.457290
     14          1           0       -1.074624   -1.673774   -1.574788
     15          1           0       -0.741858    2.245853   -0.847956
     16          1           0        1.925687   -0.410782    1.205650
     17          1           0        0.580371    1.857219    1.267995
     18          1           0        0.315535   -2.308613    0.424469
     19          1           0        1.681288   -0.627178   -1.377720
     20          1           0        0.323844   -1.240221    2.604637
     21          1           0        2.528759    1.607969    0.081833
 ---------------------------------------------------------------------

 SCF Done:  E(RB3LYP) =  -610.805356607     A.U. after   12 cycles

 The electronic state is 1-A.
 Alpha  occ. eigenvalues --  -19.18210 -19.17536 -19.17381 -19.16914 -19.16774
 Alpha  occ. eigenvalues --  -10.29361 -10.24807 -10.24735 -10.24648 -10.24513
 Alpha  occ. eigenvalues --  -10.23849  -1.11237  -1.04695  -1.03486  -1.03346
 Alpha  occ. eigenvalues --   -1.00907  -0.79102  -0.77634  -0.67802  -0.66053
 Alpha  occ. eigenvalues --   -0.62662  -0.58234  -0.55493  -0.53606  -0.52210
 Alpha  occ. eigenvalues --   -0.49831  -0.47470  -0.47182  -0.45138  -0.44658
 Alpha  occ. eigenvalues --   -0.43219  -0.41650  -0.39873  -0.38846  -0.37698
 Alpha  occ. eigenvalues --   -0.37075  -0.35023  -0.34539  -0.31618  -0.30508
 Alpha  occ. eigenvalues --   -0.28697  -0.27135  -0.26569
 Alpha virt. eigenvalues --    0.00777   0.01347   0.02456   0.02825   0.03653
 Alpha virt. eigenvalues --    0.04555   0.05423   0.05567   0.06182   0.08117
 Alpha virt. eigenvalues --    0.08758   0.09461   0.10195   0.10419   0.11853

 Mulliken atomic charges:
              1
     1  C   -0.185724
     2  C    0.364886
     3  C    0.046699
     4  C    0.066860
     5  C    0.132430
     6  C   -0.155980
     7  O   -0.452655
     8  O   -0.439056
     9  O   -0.582386
    10  O   -0.606176
    11  O   -0.624749
    12  H    0.177274
    13  H    0.164536
    14  H    0.173700
    15  H    0.169041
    16  H    0.167015
    17  H    0.171753
    18  H    0.170031
    19  H    0.405915
    20  H    0.414393
    21  H    0.422194
 Sum of Mulliken atomic charges =   0.00000

 Dipole moment (field-independent basis, Debye):
    X=              1.3292    Y=             -1.9695    Z=              3.1606  Tot=              3.9541
 Quadrupole moment (field-independent basis, Debye-Ang):
   XX=            -62.0765   YY=            -61.3249   ZZ=            -69.8384
   XY=             10.2543   XZ=              8.6848   YZ=             -4.7903

 Normal termination of Gaussian 09 at Mon Apr 15 17:48:43 2019.
