 Gaussian 09, Revision C.01,
 Gaussian 09:  EM64L-G09RevC.01 23-Sep-2011

 -----------------------------------------------------------
 # B3LYP/6-31+G** test scrf=(pcm,solvent=water,smd,dovacuum)
 -----------------------------------------------------------

 99/5=1,9=1/99;
 -------
 comment
 -------
 Charge =  0 Multiplicity = 1

                         Standard orientation:
 ---------------------------------------------------------------------
 Center     Atomic      Atomic             Coordinates (Angstroms)
 Number     Number       Type             X           Y           Z
 ---------------------------------------------------------------------
      1          6           0        2.004576    0.507687    0.121398
      2          6           0        0.817284    1.013698   -0.712478
      3          6           0        0.613298   -1.187913   -0.559804
      4          6           0       -0.860622    0.180128    1.016162
      5          6           0       -0.656340   -1.187430    0.318900
      6          6           0       -0.459182    1.344424    0.080178
      7          8           0        0.527871   -0.150473   -1.518688
      8          8           0        1.768126   -0.913305    0.220004
      9          8           0       -1.514327    1.632445   -0.831349
     10          8           0       -0.098285    0.308445    2.211040
     11          8           0       -1.816037   -1.381975   -0.493119
     12          1           0        2.048802    0.940570    1.121909
     13          1           0        2.952739    0.673410   -0.401024
     14          1           0        1.070137    1.833365   -1.387281
     15          1           0        0.743106   -2.138419   -1.088251
     16          1           0       -1.934021    0.280484    1.228060
     17          1           0       -0.568695   -1.979480    1.077796
     18          1           0       -0.309386    2.243183    0.686533
     19          1           0       -1.664485    0.805619   -1.325375
     20          1           0       -0.323229   -0.435876    2.792401
     21          1           0       -1.707839   -2.207503   -0.994006
 ---------------------------------------------------------------------

 SCF Done:  E(RB3LYP) =  -610.804826047     A.U. after   12 cycles

 The electronic state is 1-A.
 Alpha  occ. eigenvalues --  -19.18251 -19.17578 -19.17405 -19.16934 -19.16803
 Alpha  occ. eigenvalues --  -10.29345 -10.24851 -10.24769 -10.24727 -10.24638
 Alpha  occ. eigenvalues --  -10.23864  -1.11236  -1.04762  -1.03573  -1.03408
 Alpha  occ. eigenvalues --   -1.00938  -0.79126  -0.77647  -0.67926  -0.65991
 Alpha  occ. eigenvalues --   -0.62966  -0.58164  -0.55394  -0.53888  -0.51979
 Alpha  occ. eigenvalues --   -0.50223  -0.47473  -0.46329  -0.45955  -0.44716
 Alpha  occ. eigenvalues --   -0.43334  -0.41533  -0.40221  -0.38864  -0.38259
 Alpha  occ. eigenvalues --   -0.36607  -0.35249  -0.33648  -0.31253  -0.30899
 Alpha  occ. eigenvalues --   -0.28965  -0.27663  -0.26231
 Alpha virt. eigenvalues --    0.00823   0.01330   0.02495   0.02854   0.03661
 Alpha virt. eigenvalues --    0.04561   0.05354   0.05520   0.06128   0.08187
 Alpha virt. eigenvalues --    0.08716   0.09498   0.10227   0.10382   0.11706

 Mulliken atomic charges:
              1
     1  C   -0.192597
     2  C    0.397830
     3  C   -0.048140
     4  C    0.075769
     5  C    0.177215
     6  C   -0.151079
     7  O   -0.443268
     8  O   -0.432330
     9  O   -0.582609
    10  O   -0.609593
    11  O   -0.616345
    12  H    0.177587
    13  H    0.165030
    14  H    0.173916
    15  H    0.171531
    16  H    0.165740
    17  H    0.167659
    18  H    0.172374
    19  H    0.403689
    20  H    0.413502
    21  H    0.414118
 Sum of Mulliken atomic charges =   0.00000

 Dipole moment (field-independent basis, Debye):
    X=              0.8034    Y=             -3.2680    Z=              1.1478  Tot=              3.5557
 Quadrupole moment (field-independent basis, Debye-Ang):
   XX=            -71.3097   YY=            -58.5561   ZZ=            -64.6873
   XY=             11.3759   XZ=             -3.5207   YZ=              0.8859

 Normal termination of Gaussian 09 at Tue Apr 16 01:26:15 2019.
