 Gaussian 09, Revision C.01,
 Gaussian 09:  EM64L-G09RevC.01 23-Sep-2011

 ------------------------------------------------
 # mpw1pw91/6-31+g** nmr scrf=(pcm,solvent=water)
 ------------------------------------------------

 99/9=1/99;
 -------
 comment
 -------
 Charge =  0 Multiplicity = 1

                         Standard orientation:
 ---------------------------------------------------------------------
 Center     Atomic      Atomic             Coordinates (Angstroms)
 Number     Number       Type             X           Y           Z
 ---------------------------------------------------------------------
      1          6           0        1.946446    0.661515    0.159550
      2          6           0        0.695141    1.138992   -0.597577
      3          6           0        0.711633   -1.072929   -0.707282
      4          6           0       -0.842130   -0.054982    1.047407
      5          6           0       -0.554832   -1.285029    0.146299
      6          6           0       -0.566435    1.254204    0.279557
      7          8           0        0.507804    0.062094   -1.534757
      8          8           0        1.850124   -0.775852    0.089767
      9          8           0       -1.723663    1.462988   -0.534911
     10          8           0       -0.056146   -0.016658    2.232893
     11          8           0       -1.658302   -1.531066   -0.719578
     12          1           0        1.968320    0.976710    1.203851
     13          1           0        2.861339    0.983239   -0.349197
     14          1           0        0.860673    2.056452   -1.168523
     15          1           0        0.915544   -1.937448   -1.344610
     16          1           0       -1.913070   -0.078761    1.293560
     17          1           0       -0.436970   -2.180139    0.767366
     18          1           0       -0.440700    2.070544    1.004711
     19          1           0       -1.547123    2.206526   -1.134756
     20          1           0       -0.159777   -0.867727    2.687848
     21          1           0       -1.805713   -0.692071   -1.195289
 ---------------------------------------------------------------------

 SCF Done:  E(RmPW1PW91) =  -610.646545653     A.U. after   12 cycles

      1  C    Isotropic =   130.0970   Anisotropy =    64.5535

      2  C    Isotropic =   117.4035   Anisotropy =    45.6847

      3  C    Isotropic =    91.6595   Anisotropy =    34.2113

      4  C    Isotropic =   121.7835   Anisotropy =    50.4342

      5  C    Isotropic =   123.3424   Anisotropy =    45.5810

      6  C    Isotropic =   123.2948   Anisotropy =    51.8770

      7  O    Isotropic =   256.5477   Anisotropy =    58.1074

      8  O    Isotropic =   266.4386   Anisotropy =   103.1044

      9  O    Isotropic =   288.5135   Anisotropy =    89.2962

     10  O    Isotropic =   288.2056   Anisotropy =    71.9002

     11  O    Isotropic =   287.2469   Anisotropy =    23.1390

     12  H    Isotropic =    27.1351   Anisotropy =     5.8440

     13  H    Isotropic =    27.7055   Anisotropy =    11.1596

     14  H    Isotropic =    27.1885   Anisotropy =     8.0918

     15  H    Isotropic =    26.0767   Anisotropy =     7.6429

     16  H    Isotropic =    27.5572   Anisotropy =     4.6043

     17  H    Isotropic =    28.3358   Anisotropy =     5.4618

     18  H    Isotropic =    27.7025   Anisotropy =     5.9425

     19  H    Isotropic =    30.0770   Anisotropy =    18.9826

     20  H    Isotropic =    30.2266   Anisotropy =    18.2844

     21  H    Isotropic =    28.5671   Anisotropy =    15.2190

 The electronic state is 1-A.
 Alpha  occ. eigenvalues --  -19.27629 -19.27067 -19.26708 -19.26432 -19.25957
 Alpha  occ. eigenvalues --  -10.35587 -10.31911 -10.31816 -10.31537 -10.31099
 Alpha  occ. eigenvalues --  -10.30463  -1.14306  -1.08075  -1.06818  -1.06307
 Alpha  occ. eigenvalues --   -1.03754  -0.82244  -0.80338  -0.70779  -0.68339
 Alpha  occ. eigenvalues --   -0.65226  -0.60270  -0.57775  -0.56877  -0.53920
 Alpha  occ. eigenvalues --   -0.52239  -0.49395  -0.47679  -0.47135  -0.46126
 Alpha  occ. eigenvalues --   -0.45203  -0.44396  -0.41370  -0.40694  -0.40127
 Alpha  occ. eigenvalues --   -0.38662  -0.36750  -0.34874  -0.32669  -0.31419
 Alpha  occ. eigenvalues --   -0.31355  -0.29544  -0.26961
 Alpha virt. eigenvalues --    0.00719   0.01128   0.02495   0.02745   0.03924
 Alpha virt. eigenvalues --    0.04206   0.04930   0.05378   0.06067   0.08113
 Alpha virt. eigenvalues --    0.08824   0.09569   0.10114   0.10128   0.11226

 Mulliken atomic charges:
              1
     1  C   -0.238494
     2  C    0.288145
     3  C   -0.117743
     4  C   -0.034875
     5  C    0.117553
     6  C   -0.122511
     7  O   -0.374305
     8  O   -0.351254
     9  O   -0.566188
    10  O   -0.543128
    11  O   -0.507981
    12  H    0.190662
    13  H    0.174383
    14  H    0.189595
    15  H    0.182516
    16  H    0.184946
    17  H    0.179183
    18  H    0.181064
    19  H    0.387626
    20  H    0.388179
    21  H    0.392628
 Sum of Mulliken atomic charges =   0.00000

 Dipole moment (field-independent basis, Debye):
    X=              1.0006    Y=              3.2295    Z=              0.8513  Tot=              3.4865
 Quadrupole moment (field-independent basis, Debye-Ang):
   XX=            -71.8569   YY=            -56.5660   ZZ=            -64.7189
   XY=              0.4193   XZ=             -1.7726   YZ=             -8.2699

 Normal termination of Gaussian 09 at Fri Apr 12 10:09:10 2019.
