 Gaussian 09, Revision C.01,
 Gaussian 09:  EM64L-G09RevC.01 23-Sep-2011

 ------------------------------------------------
 # mpw1pw91/6-31+g** nmr scrf=(pcm,solvent=water)
 ------------------------------------------------

 99/9=1/99;
 -------
 comment
 -------
 Charge =  0 Multiplicity = 1

                         Standard orientation:
 ---------------------------------------------------------------------
 Center     Atomic      Atomic             Coordinates (Angstroms)
 Number     Number       Type             X           Y           Z
 ---------------------------------------------------------------------
      1          6           0        2.030323    0.483805    0.068069
      2          6           0        0.771999    1.211352   -0.403164
      3          6           0        0.505455   -0.922868   -0.969762
      4          6           0       -0.726950   -0.218230    1.105623
      5          6           0       -0.720871   -1.208546   -0.083780
      6          6           0       -0.398853    1.214760    0.599579
      7          8           0        0.400058    0.370065   -1.520107
      8          8           0        1.686418   -0.910895   -0.141323
      9          8           0       -1.547644    1.784785   -0.022640
     10          8           0        0.144395   -0.655452    2.145514
     11          8           0       -1.859011   -1.020657   -0.928963
     12          1           0        2.272244    0.636404    1.121829
     13          1           0        2.895040    0.741662   -0.551059
     14          1           0        0.955541    2.215440   -0.788415
     15          1           0        0.619892   -1.644762   -1.781567
     16          1           0       -1.732922   -0.182976    1.538393
     17          1           0       -0.673823   -2.236673    0.298154
     18          1           0       -0.153604    1.846514    1.459415
     19          1           0       -1.827215    1.137593   -0.697796
     20          1           0        0.920594   -1.046786    1.705233
     21          1           0       -2.636090   -1.370830   -0.463431
 ---------------------------------------------------------------------

 SCF Done:  E(RmPW1PW91) =  -610.648335163     A.U. after   12 cycles

      1  C    Isotropic =   129.5218   Anisotropy =    60.9545

      2  C    Isotropic =   115.7412   Anisotropy =    43.8867

      3  C    Isotropic =    92.2376   Anisotropy =    38.4509

      4  C    Isotropic =   121.3349   Anisotropy =    52.0862

      5  C    Isotropic =   124.5434   Anisotropy =    48.6331

      6  C    Isotropic =   123.0994   Anisotropy =    50.6528

      7  O    Isotropic =   255.9698   Anisotropy =    69.7666

      8  O    Isotropic =   262.4973   Anisotropy =   109.5606

      9  O    Isotropic =   284.8056   Anisotropy =    37.4297

     10  O    Isotropic =   288.0275   Anisotropy =    40.3691

     11  O    Isotropic =   288.8559   Anisotropy =    49.9011

     12  H    Isotropic =    27.3385   Anisotropy =     6.8942

     13  H    Isotropic =    27.6802   Anisotropy =    11.4124

     14  H    Isotropic =    26.9869   Anisotropy =     8.2120

     15  H    Isotropic =    25.8954   Anisotropy =     7.7462

     16  H    Isotropic =    27.9030   Anisotropy =     4.8605

     17  H    Isotropic =    27.7612   Anisotropy =     5.2872

     18  H    Isotropic =    27.9776   Anisotropy =     6.0440

     19  H    Isotropic =    27.9529   Anisotropy =    15.8595

     20  H    Isotropic =    28.1989   Anisotropy =    16.4545

     21  H    Isotropic =    29.6066   Anisotropy =    19.5061

 The electronic state is 1-A.
 Alpha  occ. eigenvalues --  -19.28140 -19.28063 -19.27582 -19.25984 -19.25751
 Alpha  occ. eigenvalues --  -10.36518 -10.31936 -10.31858 -10.31448 -10.31256
 Alpha  occ. eigenvalues --  -10.31247  -1.14958  -1.08171  -1.06734  -1.06424
 Alpha  occ. eigenvalues --   -1.04157  -0.82608  -0.80562  -0.70777  -0.68853
 Alpha  occ. eigenvalues --   -0.65579  -0.61497  -0.58526  -0.55790  -0.53668
 Alpha  occ. eigenvalues --   -0.52172  -0.49863  -0.49104  -0.47870  -0.46467
 Alpha  occ. eigenvalues --   -0.45385  -0.43969  -0.41471  -0.41213  -0.39896
 Alpha  occ. eigenvalues --   -0.38162  -0.37194  -0.36462  -0.33613  -0.33199
 Alpha  occ. eigenvalues --   -0.30571  -0.28669  -0.27949
 Alpha virt. eigenvalues --    0.00659   0.01298   0.02483   0.02873   0.03675
 Alpha virt. eigenvalues --    0.04344   0.05214   0.05319   0.05881   0.08084
 Alpha virt. eigenvalues --    0.08573   0.09738   0.09809   0.10296   0.11438

 Mulliken atomic charges:
              1
     1  C   -0.195142
     2  C    0.300837
     3  C   -0.031801
     4  C   -0.074027
     5  C    0.107894
     6  C   -0.205495
     7  O   -0.382163
     8  O   -0.439490
     9  O   -0.520271
    10  O   -0.516034
    11  O   -0.578795
    12  H    0.191798
    13  H    0.185830
    14  H    0.193848
    15  H    0.189375
    16  H    0.187728
    17  H    0.197820
    18  H    0.185162
    19  H    0.396696
    20  H    0.399083
    21  H    0.407145
 Sum of Mulliken atomic charges =   0.00000

 Dipole moment (field-independent basis, Debye):
    X=              0.8795    Y=             -1.6097    Z=              0.3144  Tot=              1.8611
 Quadrupole moment (field-independent basis, Debye-Ang):
   XX=            -58.2426   YY=            -63.5039   ZZ=            -74.5842
   XY=             11.0161   XZ=             -0.6576   YZ=              2.0796

 Normal termination of Gaussian 09 at Fri Apr 12 10:21:35 2019.
