 Gaussian 09, Revision C.01,
 Gaussian 09:  EM64L-G09RevC.01 23-Sep-2011

 ------------------------------------------------
 # mpw1pw91/6-31+g** nmr scrf=(pcm,solvent=water)
 ------------------------------------------------

 99/9=1/99;
 -------
 comment
 -------
 Charge =  0 Multiplicity = 1

                         Standard orientation:
 ---------------------------------------------------------------------
 Center     Atomic      Atomic             Coordinates (Angstroms)
 Number     Number       Type             X           Y           Z
 ---------------------------------------------------------------------
      1          6           0       -2.153675    0.505278   -0.646243
      2          6           0       -1.136732    0.991585    0.389046
      3          6           0       -0.913581   -1.208770    0.271859
      4          6           0        1.196862    0.112580    0.073571
      5          6           0        0.538939   -1.229394   -0.260203
      6          6           0        0.257540    1.289279   -0.219591
      7          8           0       -1.068564   -0.180326    1.234530
      8          8           0       -1.814929   -0.886557   -0.790697
      9          8           0        0.750556    2.495366    0.357607
     10          8           0        2.421659    0.241292   -0.658627
     11          8           0        1.234574   -2.305330    0.360260
     12          1           0       -2.071472    1.001359   -1.617012
     13          1           0       -3.179178    0.602611   -0.271476
     14          1           0       -1.477115    1.831376    0.995741
     15          1           0       -1.186923   -2.165760    0.723631
     16          1           0        1.396895    0.114072    1.149944
     17          1           0        0.508997   -1.368152   -1.350006
     18          1           0        0.173936    1.408255   -1.310173
     19          1           0        1.622068    2.655128   -0.042673
     20          1           0        3.127761    0.465611   -0.034899
     21          1           0        2.162540   -2.223412    0.081701
 ---------------------------------------------------------------------

 SCF Done:  E(RmPW1PW91) =  -610.644028108     A.U. after   12 cycles

      1  C    Isotropic =   126.2590   Anisotropy =    43.9865

      2  C    Isotropic =   115.9771   Anisotropy =    44.2756

      3  C    Isotropic =    91.2294   Anisotropy =    24.0845

      4  C    Isotropic =   116.8334   Anisotropy =    19.7796

      5  C    Isotropic =   117.7435   Anisotropy =    28.3334

      6  C    Isotropic =   118.5641   Anisotropy =    25.9068

      7  O    Isotropic =   244.4798   Anisotropy =    46.7382

      8  O    Isotropic =   258.5160   Anisotropy =   129.0433

      9  O    Isotropic =   295.4520   Anisotropy =    54.9465

     10  O    Isotropic =   319.0529   Anisotropy =    47.6608

     11  O    Isotropic =   298.0729   Anisotropy =    48.5760

     12  H    Isotropic =    27.7136   Anisotropy =     7.6058

     13  H    Isotropic =    27.8379   Anisotropy =    10.9656

     14  H    Isotropic =    27.1030   Anisotropy =     6.6650

     15  H    Isotropic =    26.1861   Anisotropy =     6.5216

     16  H    Isotropic =    28.1511   Anisotropy =     4.4256

     17  H    Isotropic =    28.1457   Anisotropy =     3.3661

     18  H    Isotropic =    28.0167   Anisotropy =     4.0339

     19  H    Isotropic =    29.2907   Anisotropy =    18.5557

     20  H    Isotropic =    29.0957   Anisotropy =    21.0847

     21  H    Isotropic =    29.3134   Anisotropy =    17.8970

 The electronic state is 1-A.
 Alpha  occ. eigenvalues --  -19.27846 -19.27048 -19.26905 -19.26518 -19.26440
 Alpha  occ. eigenvalues --  -10.36089 -10.32045 -10.31568 -10.31307 -10.31113
 Alpha  occ. eigenvalues --  -10.30702  -1.14373  -1.08527  -1.07035  -1.05759
 Alpha  occ. eigenvalues --   -1.04050  -0.82325  -0.81502  -0.70089  -0.68864
 Alpha  occ. eigenvalues --   -0.64502  -0.59613  -0.58233  -0.57141  -0.54172
 Alpha  occ. eigenvalues --   -0.52209  -0.51099  -0.49801  -0.47521  -0.45860
 Alpha  occ. eigenvalues --   -0.44525  -0.42997  -0.41792  -0.41309  -0.38174
 Alpha  occ. eigenvalues --   -0.37750  -0.36977  -0.36283  -0.33568  -0.32028
 Alpha  occ. eigenvalues --   -0.30720  -0.29491  -0.27794
 Alpha virt. eigenvalues --    0.00384   0.01370   0.02145   0.02609   0.03725
 Alpha virt. eigenvalues --    0.04196   0.04382   0.05557   0.06319   0.07351
 Alpha virt. eigenvalues --    0.08591   0.09413   0.09831   0.10129   0.11405

 Mulliken atomic charges:
              1
     1  C   -0.249832
     2  C    0.339442
     3  C   -0.019930
     4  C   -0.186491
     5  C    0.093619
     6  C   -0.030477
     7  O   -0.361619
     8  O   -0.379997
     9  O   -0.553674
    10  O   -0.591406
    11  O   -0.542499
    12  H    0.179499
    13  H    0.177149
    14  H    0.199645
    15  H    0.188612
    16  H    0.204225
    17  H    0.187425
    18  H    0.178345
    19  H    0.382262
    20  H    0.401741
    21  H    0.383962
 Sum of Mulliken atomic charges =   0.00000

 Dipole moment (field-independent basis, Debye):
    X=              2.4891    Y=              2.4569    Z=             -1.1151  Tot=              3.6709
 Quadrupole moment (field-independent basis, Debye-Ang):
   XX=            -52.5767   YY=            -69.9630   ZZ=            -69.9879
   XY=             -1.7141   XZ=              2.6469   YZ=             -2.1619

 Normal termination of Gaussian 09 at Fri Apr 12 10:02:15 2019.
