 Gaussian 09, Revision C.01,
 Gaussian 09:  EM64L-G09RevC.01 23-Sep-2011

 -----------------------------------------------------------
 # B3LYP/6-31+G** test scrf=(pcm,solvent=water,smd,dovacuum)
 -----------------------------------------------------------

 99/5=1,9=1/99;
 -------
 comment
 -------
 Charge =  0 Multiplicity = 1

                         Standard orientation:
 ---------------------------------------------------------------------
 Center     Atomic      Atomic             Coordinates (Angstroms)
 Number     Number       Type             X           Y           Z
 ---------------------------------------------------------------------
      1          6           0       -2.153675    0.505278   -0.646243
      2          6           0       -1.136732    0.991585    0.389046
      3          6           0       -0.913581   -1.208770    0.271859
      4          6           0        1.196862    0.112580    0.073571
      5          6           0        0.538939   -1.229394   -0.260203
      6          6           0        0.257540    1.289279   -0.219591
      7          8           0       -1.068564   -0.180326    1.234530
      8          8           0       -1.814929   -0.886557   -0.790697
      9          8           0        0.750556    2.495366    0.357607
     10          8           0        2.421659    0.241292   -0.658627
     11          8           0        1.234574   -2.305330    0.360260
     12          1           0       -2.071472    1.001359   -1.617012
     13          1           0       -3.179178    0.602611   -0.271476
     14          1           0       -1.477115    1.831376    0.995741
     15          1           0       -1.186923   -2.165760    0.723631
     16          1           0        1.396895    0.114072    1.149944
     17          1           0        0.508997   -1.368152   -1.350006
     18          1           0        0.173936    1.408255   -1.310173
     19          1           0        1.622068    2.655128   -0.042673
     20          1           0        3.127761    0.465611   -0.034899
     21          1           0        2.162540   -2.223412    0.081701
 ---------------------------------------------------------------------

 SCF Done:  E(RB3LYP) =  -610.804145824     A.U. after   12 cycles

 The electronic state is 1-A.
 Alpha  occ. eigenvalues --  -19.18380 -19.17506 -19.17178 -19.17080 -19.17014
 Alpha  occ. eigenvalues --  -10.29558 -10.25197 -10.24652 -10.24432 -10.24373
 Alpha  occ. eigenvalues --  -10.23926  -1.11143  -1.05045  -1.03818  -1.02365
 Alpha  occ. eigenvalues --   -1.01110  -0.79293  -0.78492  -0.67365  -0.66180
 Alpha  occ. eigenvalues --   -0.62047  -0.57292  -0.55796  -0.54804  -0.51991
 Alpha  occ. eigenvalues --   -0.50159  -0.48922  -0.47660  -0.45423  -0.43891
 Alpha  occ. eigenvalues --   -0.42608  -0.41139  -0.39951  -0.39684  -0.36555
 Alpha  occ. eigenvalues --   -0.36203  -0.35375  -0.34578  -0.31711  -0.30448
 Alpha  occ. eigenvalues --   -0.29213  -0.28030  -0.26270
 Alpha virt. eigenvalues --    0.00599   0.01467   0.02337   0.02888   0.03862
 Alpha virt. eigenvalues --    0.04317   0.04542   0.05692   0.06436   0.07534
 Alpha virt. eigenvalues --    0.08692   0.09578   0.10045   0.10339   0.11627

 Mulliken atomic charges:
              1
     1  C   -0.201416
     2  C    0.346123
     3  C    0.085544
     4  C   -0.042470
     5  C    0.120488
     6  C    0.023349
     7  O   -0.443464
     8  O   -0.452965
     9  O   -0.627806
    10  O   -0.648325
    11  O   -0.614623
    12  H    0.172532
    13  H    0.165393
    14  H    0.183087
    15  H    0.174302
    16  H    0.182652
    17  H    0.172649
    18  H    0.170002
    19  H    0.407002
    20  H    0.420503
    21  H    0.407443
 Sum of Mulliken atomic charges =   0.00000

 Dipole moment (field-independent basis, Debye):
    X=              2.7824    Y=              2.7210    Z=             -1.2982  Tot=              4.1025
 Quadrupole moment (field-independent basis, Debye-Ang):
   XX=            -52.5879   YY=            -71.3370   ZZ=            -71.0067
   XY=             -1.9192   XZ=              2.9484   YZ=             -2.3924

 Normal termination of Gaussian 09 at Mon Apr 15 17:46:24 2019.
