 Gaussian 09, Revision C.01,
 Gaussian 09:  EM64L-G09RevC.01 23-Sep-2011

 -----------------------------------------------------------
 # B3LYP/6-31+G** test scrf=(pcm,solvent=water,smd,dovacuum)
 -----------------------------------------------------------

 99/5=1,9=1/99;
 -------
 comment
 -------
 Charge =  0 Multiplicity = 1

                         Standard orientation:
 ---------------------------------------------------------------------
 Center     Atomic      Atomic             Coordinates (Angstroms)
 Number     Number       Type             X           Y           Z
 ---------------------------------------------------------------------
      1          6           0       -2.140915    0.555907   -0.646371
      2          6           0       -1.116276    1.014860    0.393115
      3          6           0       -0.938358   -1.188863    0.264119
      4          6           0        1.201059    0.088720    0.071134
      5          6           0        0.517024   -1.244991   -0.260260
      6          6           0        0.283873    1.283003   -0.211973
      7          8           0       -1.074214   -0.162676    1.232012
      8          8           0       -1.825583   -0.840135   -0.801821
      9          8           0        0.816675    2.468110    0.369846
     10          8           0        2.412965    0.281782   -0.666965
     11          8           0        1.169956   -2.340664    0.376807
     12          1           0       -2.048834    1.057694   -1.613272
     13          1           0       -3.164922    0.668388   -0.271717
     14          1           0       -1.439118    1.858831    1.003582
     15          1           0       -1.235653   -2.141768    0.709553
     16          1           0        1.409079    0.086504    1.146379
     17          1           0        0.491172   -1.391592   -1.348100
     18          1           0        0.202634    1.410693   -1.302477
     19          1           0        1.735389    2.523680    0.053297
     20          1           0        3.159164    0.040513   -0.097956
     21          1           0        2.054266   -2.416092   -0.016913
 ---------------------------------------------------------------------

 SCF Done:  E(RB3LYP) =  -610.804176694     A.U. after   12 cycles

 The electronic state is 1-A.
 Alpha  occ. eigenvalues --  -19.18380 -19.17512 -19.17193 -19.17096 -19.16957
 Alpha  occ. eigenvalues --  -10.29544 -10.25196 -10.24692 -10.24423 -10.24380
 Alpha  occ. eigenvalues --  -10.23921  -1.11146  -1.05064  -1.03785  -1.02366
 Alpha  occ. eigenvalues --   -1.01116  -0.79304  -0.78459  -0.67419  -0.66135
 Alpha  occ. eigenvalues --   -0.62076  -0.57327  -0.55768  -0.54781  -0.51996
 Alpha  occ. eigenvalues --   -0.50229  -0.48482  -0.48013  -0.45397  -0.44014
 Alpha  occ. eigenvalues --   -0.42471  -0.41301  -0.39830  -0.39583  -0.36954
 Alpha  occ. eigenvalues --   -0.35712  -0.35411  -0.34652  -0.31870  -0.30301
 Alpha  occ. eigenvalues --   -0.28977  -0.28440  -0.26142
 Alpha virt. eigenvalues --    0.00611   0.01466   0.02315   0.02902   0.03860
 Alpha virt. eigenvalues --    0.04309   0.04579   0.05684   0.06426   0.07545
 Alpha virt. eigenvalues --    0.08621   0.09574   0.10075   0.10390   0.11669

 Mulliken atomic charges:
              1
     1  C   -0.201395
     2  C    0.351117
     3  C    0.074550
     4  C   -0.026729
     5  C    0.129745
     6  C    0.005866
     7  O   -0.443553
     8  O   -0.452702
     9  O   -0.621723
    10  O   -0.647158
    11  O   -0.622916
    12  H    0.172480
    13  H    0.165313
    14  H    0.182951
    15  H    0.173341
    16  H    0.181542
    17  H    0.175071
    18  H    0.168501
    19  H    0.403855
    20  H    0.419773
    21  H    0.412069
 Sum of Mulliken atomic charges =   0.00000

 Dipole moment (field-independent basis, Debye):
    X=              2.9329    Y=              1.0688    Z=             -1.5108  Tot=              3.4680
 Quadrupole moment (field-independent basis, Debye-Ang):
   XX=            -52.0754   YY=            -71.2772   ZZ=            -71.2034
   XY=             -6.5979   XZ=              2.2076   YZ=             -1.1188

 Normal termination of Gaussian 09 at Mon Apr 15 18:11:20 2019.
