 Gaussian 09, Revision C.01,
 Gaussian 09:  EM64L-G09RevC.01 23-Sep-2011

 ------------------------------------------------
 # mpw1pw91/6-31+g** nmr scrf=(pcm,solvent=water)
 ------------------------------------------------

 99/9=1/99;
 -------
 comment
 -------
 Charge =  0 Multiplicity = 1

                         Standard orientation:
 ---------------------------------------------------------------------
 Center     Atomic      Atomic             Coordinates (Angstroms)
 Number     Number       Type             X           Y           Z
 ---------------------------------------------------------------------
      1          6           0       -1.974194   -0.560957    0.245028
      2          6           0       -0.820976   -1.047072   -0.644164
      3          6           0       -0.685303    1.176009   -0.534537
      4          6           0        0.949702   -0.118720    0.937937
      5          6           0        0.624226    1.242419    0.269045
      6          6           0        0.492783   -1.340218    0.088494
      7          8           0       -0.585037    0.112844   -1.481417
      8          8           0       -1.796080    0.867938    0.285658
      9          8           0        1.492971   -1.712186   -0.860560
     10          8           0        0.309595   -0.115061    2.215698
     11          8           0        1.678492    1.691040   -0.578111
     12          1           0       -1.933273   -0.965828    1.258043
     13          1           0       -2.945950   -0.784026   -0.207037
     14          1           0       -1.092599   -1.878293   -1.297981
     15          1           0       -0.866679    2.107427   -1.077540
     16          1           0        2.040246   -0.178614    1.047876
     17          1           0        0.529211    1.990285    1.061158
     18          1           0        0.366844   -2.200300    0.756638
     19          1           0        1.323681   -1.204076   -1.671570
     20          1           0        0.608281   -0.904593    2.695865
     21          1           0        1.653276    1.152664   -1.386420
 ---------------------------------------------------------------------

 SCF Done:  E(RmPW1PW91) =  -610.644771838     A.U. after   12 cycles

      1  C    Isotropic =   129.7829   Anisotropy =    63.8289

      2  C    Isotropic =   117.3603   Anisotropy =    45.4758

      3  C    Isotropic =    91.5111   Anisotropy =    32.4700

      4  C    Isotropic =   119.5428   Anisotropy =    45.9509

      5  C    Isotropic =   123.5115   Anisotropy =    43.4715

      6  C    Isotropic =   122.3044   Anisotropy =    48.6256

      7  O    Isotropic =   260.7829   Anisotropy =    57.3361

      8  O    Isotropic =   266.0748   Anisotropy =   110.4116

      9  O    Isotropic =   286.4201   Anisotropy =    48.0047

     10  O    Isotropic =   282.0798   Anisotropy =    69.2243

     11  O    Isotropic =   288.1626   Anisotropy =    30.4294

     12  H    Isotropic =    27.1759   Anisotropy =     6.0692

     13  H    Isotropic =    27.6224   Anisotropy =    10.9231

     14  H    Isotropic =    27.0367   Anisotropy =     8.1700

     15  H    Isotropic =    26.0729   Anisotropy =     7.4830

     16  H    Isotropic =    27.6369   Anisotropy =     4.4124

     17  H    Isotropic =    28.1168   Anisotropy =     5.0030

     18  H    Isotropic =    28.1865   Anisotropy =     5.7548

     19  H    Isotropic =    29.3670   Anisotropy =    12.9951

     20  H    Isotropic =    29.9813   Anisotropy =    18.6641

     21  H    Isotropic =    29.9246   Anisotropy =    13.1809

 The electronic state is 1-A.
 Alpha  occ. eigenvalues --  -19.28517 -19.27134 -19.26723 -19.26625 -19.26439
 Alpha  occ. eigenvalues --  -10.36119 -10.32196 -10.31709 -10.31414 -10.31333
 Alpha  occ. eigenvalues --  -10.30794  -1.14701  -1.07923  -1.07056  -1.06554
 Alpha  occ. eigenvalues --   -1.04220  -0.82437  -0.80472  -0.70915  -0.68725
 Alpha  occ. eigenvalues --   -0.65834  -0.60979  -0.58188  -0.55482  -0.54404
 Alpha  occ. eigenvalues --   -0.52886  -0.49931  -0.48069  -0.47688  -0.46272
 Alpha  occ. eigenvalues --   -0.45409  -0.43803  -0.41976  -0.40676  -0.39096
 Alpha  occ. eigenvalues --   -0.38828  -0.37255  -0.35335  -0.34180  -0.32453
 Alpha  occ. eigenvalues --   -0.31000  -0.28480  -0.28004
 Alpha virt. eigenvalues --    0.00519   0.01124   0.02362   0.02755   0.03582
 Alpha virt. eigenvalues --    0.04343   0.05101   0.05207   0.05985   0.07856
 Alpha virt. eigenvalues --    0.08641   0.09301   0.09735   0.10127   0.11255

 Mulliken atomic charges:
              1
     1  C   -0.248760
     2  C    0.305859
     3  C   -0.045552
     4  C    0.039996
     5  C    0.021747
     6  C   -0.214469
     7  O   -0.411905
     8  O   -0.358365
     9  O   -0.519867
    10  O   -0.538550
    11  O   -0.489363
    12  H    0.190772
    13  H    0.178364
    14  H    0.201682
    15  H    0.190826
    16  H    0.188634
    17  H    0.191321
    18  H    0.178125
    19  H    0.378695
    20  H    0.387707
    21  H    0.373103
 Sum of Mulliken atomic charges =   0.00000

 Dipole moment (field-independent basis, Debye):
    X=             -1.1919    Y=             -3.4841    Z=             -0.0992  Tot=              3.6837
 Quadrupole moment (field-independent basis, Debye-Ang):
   XX=            -70.1214   YY=            -66.0792   ZZ=            -61.5658
   XY=              3.5134   XZ=              2.3306   YZ=             -5.8895

 Normal termination of Gaussian 09 at Fri Apr 12 10:17:02 2019.
