 Gaussian 09, Revision C.01,
 Gaussian 09:  EM64L-G09RevC.01 23-Sep-2011

 ------------------------------------------------
 # mpw1pw91/6-31+g** nmr scrf=(pcm,solvent=water)
 ------------------------------------------------

 99/9=1/99;
 -------
 comment
 -------
 Charge =  0 Multiplicity = 1

                         Standard orientation:
 ---------------------------------------------------------------------
 Center     Atomic      Atomic             Coordinates (Angstroms)
 Number     Number       Type             X           Y           Z
 ---------------------------------------------------------------------
      1          6           0       -2.159809    0.470976   -0.643069
      2          6           0       -1.158536    0.957454    0.404799
      3          6           0       -0.884982   -1.236705    0.241030
      4          6           0        1.198823    0.146052    0.050220
      5          6           0        0.581943   -1.227051   -0.260025
      6          6           0        0.226001    1.301925   -0.197632
      7          8           0       -1.067079   -0.231121    1.224855
      8          8           0       -1.766400   -0.900238   -0.834373
      9          8           0        0.702155    2.495675    0.417845
     10          8           0        2.374701    0.411847   -0.706608
     11          8           0        1.374277   -2.273973    0.296907
     12          1           0       -2.098784    0.999608   -1.597815
     13          1           0       -3.186780    0.517945   -0.262501
     14          1           0       -1.517894    1.776311    1.028862
     15          1           0       -1.158881   -2.206517    0.666907
     16          1           0        1.430267    0.163150    1.125823
     17          1           0        0.582923   -1.406551   -1.338454
     18          1           0        0.135107    1.455002   -1.283595
     19          1           0        1.614324    2.615584    0.101854
     20          1           0        3.028508   -0.263940   -0.462106
     21          1           0        1.409345   -2.144026    1.260081
 ---------------------------------------------------------------------

 SCF Done:  E(RmPW1PW91) =  -610.644459404     A.U. after   12 cycles

      1  C    Isotropic =   126.3647   Anisotropy =    43.3784

      2  C    Isotropic =   116.1751   Anisotropy =    42.0321

      3  C    Isotropic =    89.8847   Anisotropy =    22.0982

      4  C    Isotropic =   116.5520   Anisotropy =    14.8385

      5  C    Isotropic =   116.4789   Anisotropy =    26.3274

      6  C    Isotropic =   119.6014   Anisotropy =    28.1994

      7  O    Isotropic =   246.3866   Anisotropy =    44.2684

      8  O    Isotropic =   257.9984   Anisotropy =   125.9259

      9  O    Isotropic =   291.8836   Anisotropy =    53.2045

     10  O    Isotropic =   306.7359   Anisotropy =    37.5121

     11  O    Isotropic =   289.8632   Anisotropy =    51.7555

     12  H    Isotropic =    27.6921   Anisotropy =     7.6694

     13  H    Isotropic =    27.8675   Anisotropy =    11.0052

     14  H    Isotropic =    27.1322   Anisotropy =     6.6358

     15  H    Isotropic =    26.2477   Anisotropy =     6.5589

     16  H    Isotropic =    28.2283   Anisotropy =     3.6013

     17  H    Isotropic =    28.3772   Anisotropy =     2.8179

     18  H    Isotropic =    27.9093   Anisotropy =     3.9566

     19  H    Isotropic =    29.0827   Anisotropy =    18.1035

     20  H    Isotropic =    29.1636   Anisotropy =    18.7752

     21  H    Isotropic =    30.4229   Anisotropy =    16.0776

 The electronic state is 1-A.
 Alpha  occ. eigenvalues --  -19.27979 -19.27047 -19.26968 -19.26755 -19.26393
 Alpha  occ. eigenvalues --  -10.36107 -10.32114 -10.31751 -10.31468 -10.31314
 Alpha  occ. eigenvalues --  -10.30751  -1.14447  -1.08619  -1.07204  -1.05806
 Alpha  occ. eigenvalues --   -1.04153  -0.82412  -0.81306  -0.70384  -0.68781
 Alpha  occ. eigenvalues --   -0.65142  -0.60476  -0.58064  -0.57384  -0.53618
 Alpha  occ. eigenvalues --   -0.51509  -0.50797  -0.49914  -0.47926  -0.46686
 Alpha  occ. eigenvalues --   -0.44040  -0.43563  -0.41917  -0.40161  -0.38916
 Alpha  occ. eigenvalues --   -0.37993  -0.37170  -0.36488  -0.33918  -0.31731
 Alpha  occ. eigenvalues --   -0.30586  -0.30385  -0.27399
 Alpha virt. eigenvalues --    0.00827   0.01337   0.01962   0.02747   0.03913
 Alpha virt. eigenvalues --    0.04073   0.04416   0.05254   0.06002   0.07626
 Alpha virt. eigenvalues --    0.08346   0.09306   0.09834   0.10128   0.11033

 Mulliken atomic charges:
              1
     1  C   -0.256445
     2  C    0.333481
     3  C   -0.002665
     4  C   -0.050896
     5  C   -0.025849
     6  C   -0.073910
     7  O   -0.363684
     8  O   -0.383317
     9  O   -0.549306
    10  O   -0.561460
    11  O   -0.537054
    12  H    0.180610
    13  H    0.177588
    14  H    0.200011
    15  H    0.191070
    16  H    0.187371
    17  H    0.200867
    18  H    0.178824
    19  H    0.382775
    20  H    0.393440
    21  H    0.378550
 Sum of Mulliken atomic charges =   0.00000

 Dipole moment (field-independent basis, Debye):
    X=              0.5454    Y=              0.5484    Z=              0.6391  Tot=              1.0033
 Quadrupole moment (field-independent basis, Debye-Ang):
   XX=            -59.4926   YY=            -70.9751   ZZ=            -66.3228
   XY=             -3.3434   XZ=              3.7648   YZ=             -6.4808

 Normal termination of Gaussian 09 at Fri Apr 12 09:58:15 2019.
