 Gaussian 09, Revision C.01,
 Gaussian 09:  EM64L-G09RevC.01 23-Sep-2011

 ------------------------------------------------
 # mpw1pw91/6-31+g** nmr scrf=(pcm,solvent=water)
 ------------------------------------------------

 99/9=1/99;
 -------
 comment
 -------
 Charge =  0 Multiplicity = 1

                         Standard orientation:
 ---------------------------------------------------------------------
 Center     Atomic      Atomic             Coordinates (Angstroms)
 Number     Number       Type             X           Y           Z
 ---------------------------------------------------------------------
      1          6           0       -2.125374    0.624199   -0.623453
      2          6           0       -1.096594    1.015268    0.436361
      3          6           0       -0.956900   -1.184127    0.206730
      4          6           0        1.218620    0.050614    0.044163
      5          6           0        0.516626   -1.277825   -0.266385
      6          6           0        0.309979    1.269248   -0.172339
      7          8           0       -1.083381   -0.201831    1.220771
      8          8           0       -1.793710   -0.753620   -0.871554
      9          8           0        1.000792    2.359483    0.442590
     10          8           0        2.403970    0.157886   -0.730000
     11          8           0        1.195197   -2.385658    0.316223
     12          1           0       -2.041300    1.186033   -1.557439
     13          1           0       -3.148325    0.705134   -0.237211
     14          1           0       -1.400629    1.834703    1.089200
     15          1           0       -1.304475   -2.145319    0.596698
     16          1           0        1.464388    0.045326    1.118355
     17          1           0        0.525510   -1.463763   -1.343970
     18          1           0        0.222061    1.450919   -1.251729
     19          1           0        0.667227    3.185775    0.058531
     20          1           0        2.773829    1.032889   -0.519919
     21          1           0        1.260633   -2.226030    1.272784
 ---------------------------------------------------------------------

 SCF Done:  E(RmPW1PW91) =  -610.643563309     A.U. after   12 cycles

      1  C    Isotropic =   126.7288   Anisotropy =    43.0285

      2  C    Isotropic =   114.3814   Anisotropy =    39.6791

      3  C    Isotropic =    89.6926   Anisotropy =    23.1456

      4  C    Isotropic =   118.7588   Anisotropy =    20.3251

      5  C    Isotropic =   117.7727   Anisotropy =    31.1901

      6  C    Isotropic =   117.8859   Anisotropy =    23.7150

      7  O    Isotropic =   247.8143   Anisotropy =    41.6601

      8  O    Isotropic =   259.5081   Anisotropy =   123.9221

      9  O    Isotropic =   289.5915   Anisotropy =    33.6531

     10  O    Isotropic =   302.5618   Anisotropy =    41.8165

     11  O    Isotropic =   285.6176   Anisotropy =    47.5944

     12  H    Isotropic =    27.7567   Anisotropy =     7.6470

     13  H    Isotropic =    27.9451   Anisotropy =    11.0589

     14  H    Isotropic =    27.1804   Anisotropy =     6.6408

     15  H    Isotropic =    26.2627   Anisotropy =     6.5023

     16  H    Isotropic =    28.1791   Anisotropy =     3.1885

     17  H    Isotropic =    28.2475   Anisotropy =     2.8137

     18  H    Isotropic =    28.0476   Anisotropy =     4.1079

     19  H    Isotropic =    29.2651   Anisotropy =    19.5880

     20  H    Isotropic =    28.9678   Anisotropy =    17.6010

     21  H    Isotropic =    30.2982   Anisotropy =    15.7262

 The electronic state is 1-A.
 Alpha  occ. eigenvalues --  -19.27919 -19.27031 -19.26994 -19.26579 -19.26163
 Alpha  occ. eigenvalues --  -10.35976 -10.31973 -10.31850 -10.31475 -10.31334
 Alpha  occ. eigenvalues --  -10.30741  -1.14394  -1.08497  -1.07160  -1.05665
 Alpha  occ. eigenvalues --   -1.04120  -0.82267  -0.81290  -0.70541  -0.68403
 Alpha  occ. eigenvalues --   -0.65256  -0.60435  -0.57850  -0.56847  -0.54482
 Alpha  occ. eigenvalues --   -0.52193  -0.50835  -0.48523  -0.47099  -0.46549
 Alpha  occ. eigenvalues --   -0.45003  -0.43442  -0.42451  -0.39337  -0.38973
 Alpha  occ. eigenvalues --   -0.38504  -0.36648  -0.35577  -0.34153  -0.32481
 Alpha  occ. eigenvalues --   -0.31285  -0.28671  -0.27812
 Alpha virt. eigenvalues --    0.00848   0.01315   0.01809   0.02781   0.03681
 Alpha virt. eigenvalues --    0.04323   0.04454   0.05175   0.05963   0.07838
 Alpha virt. eigenvalues --    0.08417   0.09033   0.09544   0.10264   0.11226

 Mulliken atomic charges:
              1
     1  C   -0.252159
     2  C    0.352189
     3  C   -0.022432
     4  C   -0.011547
     5  C    0.022445
     6  C   -0.163197
     7  O   -0.364807
     8  O   -0.380275
     9  O   -0.578557
    10  O   -0.542190
    11  O   -0.525047
    12  H    0.180123
    13  H    0.176963
    14  H    0.197026
    15  H    0.190278
    16  H    0.178764
    17  H    0.196193
    18  H    0.189597
    19  H    0.395032
    20  H    0.386687
    21  H    0.374913
 Sum of Mulliken atomic charges =   0.00000

 Dipole moment (field-independent basis, Debye):
    X=             -2.4100    Y=              5.4513    Z=              0.4582  Tot=              5.9779
 Quadrupole moment (field-independent basis, Debye-Ang):
   XX=            -69.4988   YY=            -59.0906   ZZ=            -66.5971
   XY=              0.0130   XZ=              2.9494   YZ=             -8.1581

 Normal termination of Gaussian 09 at Fri Apr 12 10:07:30 2019.
