 Gaussian 09, Revision C.01,
 Gaussian 09:  EM64L-G09RevC.01 23-Sep-2011

 -----------------------------------------------------------
 # B3LYP/6-31+G** test scrf=(pcm,solvent=water,smd,dovacuum)
 -----------------------------------------------------------

 99/5=1,9=1/99;
 -------
 comment
 -------
 Charge =  0 Multiplicity = 1

                         Standard orientation:
 ---------------------------------------------------------------------
 Center     Atomic      Atomic             Coordinates (Angstroms)
 Number     Number       Type             X           Y           Z
 ---------------------------------------------------------------------
      1          6           0       -1.931893   -0.716048    0.104087
      2          6           0       -0.682645   -1.079950   -0.715398
      3          6           0       -0.745874    1.131345   -0.575642
      4          6           0        0.853120   -0.041315    1.034012
      5          6           0        0.530818    1.274277    0.277632
      6          6           0        0.588281   -1.265336    0.125531
      7          8           0       -0.530876    0.101401   -1.527168
      8          8           0       -1.864325    0.721917    0.199140
      9          8           0        1.653957   -1.416180   -0.817983
     10          8           0        0.086900   -0.224487    2.219252
     11          8           0        1.615759    1.631424   -0.573279
     12          1           0       -1.937302   -1.148913    1.105540
     13          1           0       -2.846188   -0.995567   -0.430114
     14          1           0       -0.824794   -1.930702   -1.383932
     15          1           0       -0.977213    2.057403   -1.108805
     16          1           0        1.927078   -0.015850    1.274654
     17          1           0        0.408977    2.094552    0.994164
     18          1           0        0.485856   -2.159032    0.755871
     19          1           0        2.454395   -1.659466   -0.324545
     20          1           0        0.194239    0.566898    2.771063
     21          1           0        1.752791    0.860240   -1.154928
 ---------------------------------------------------------------------

 SCF Done:  E(RB3LYP) =  -610.805280129     A.U. after   12 cycles

 The electronic state is 1-A.
 Alpha  occ. eigenvalues --  -19.18192 -19.17527 -19.17253 -19.16990 -19.16931
 Alpha  occ. eigenvalues --  -10.29161 -10.25019 -10.24892 -10.24696 -10.24468
 Alpha  occ. eigenvalues --  -10.23851  -1.11202  -1.04752  -1.03480  -1.03396
 Alpha  occ. eigenvalues --   -1.00940  -0.79398  -0.77326  -0.67888  -0.66086
 Alpha  occ. eigenvalues --   -0.62743  -0.58301  -0.55645  -0.53560  -0.52309
 Alpha  occ. eigenvalues --   -0.49487  -0.47457  -0.47110  -0.45813  -0.44259
 Alpha  occ. eigenvalues --   -0.43300  -0.41440  -0.39704  -0.39195  -0.38021
 Alpha  occ. eigenvalues --   -0.36960  -0.35214  -0.33822  -0.31971  -0.30353
 Alpha  occ. eigenvalues --   -0.28811  -0.28179  -0.25736
 Alpha virt. eigenvalues --    0.00813   0.01346   0.02473   0.02869   0.03794
 Alpha virt. eigenvalues --    0.04464   0.05350   0.05693   0.06092   0.08226
 Alpha virt. eigenvalues --    0.08602   0.09595   0.10247   0.10367   0.11498

 Mulliken atomic charges:
              1
     1  C   -0.175843
     2  C    0.371041
     3  C    0.030681
     4  C    0.106724
     5  C    0.066161
     6  C   -0.130473
     7  O   -0.446382
     8  O   -0.435885
     9  O   -0.640380
    10  O   -0.613478
    11  O   -0.565635
    12  H    0.177101
    13  H    0.164608
    14  H    0.174365
    15  H    0.168540
    16  H    0.164040
    17  H    0.173572
    18  H    0.171698
    19  H    0.419411
    20  H    0.414043
    21  H    0.406091
 Sum of Mulliken atomic charges =   0.00000

 Dipole moment (field-independent basis, Debye):
    X=              1.1981    Y=             -2.6311    Z=              3.1423  Tot=              4.2699
 Quadrupole moment (field-independent basis, Debye-Ang):
   XX=            -64.0357   YY=            -62.1606   ZZ=            -68.1251
   XY=             -1.9457   XZ=              5.8101   YZ=              3.7233

 Normal termination of Gaussian 09 at Tue Apr 16 01:34:28 2019.
