 Gaussian 09, Revision C.01,
 Gaussian 09:  EM64L-G09RevC.01 23-Sep-2011

 -----------------------------------------------------------
 # B3LYP/6-31+G** test scrf=(pcm,solvent=water,smd,dovacuum)
 -----------------------------------------------------------

 99/5=1,9=1/99;
 -------
 comment
 -------
 Charge =  0 Multiplicity = 1

                         Standard orientation:
 ---------------------------------------------------------------------
 Center     Atomic      Atomic             Coordinates (Angstroms)
 Number     Number       Type             X           Y           Z
 ---------------------------------------------------------------------
      1          6           0        2.123074   -0.620488   -0.637436
      2          6           0        1.096669   -1.028461    0.419315
      3          6           0        0.955825    1.173718    0.225688
      4          6           0       -1.219881   -0.049930    0.045619
      5          6           0       -0.517777    1.276292   -0.250404
      6          6           0       -0.311363   -1.270358   -0.187413
      7          8           0        1.083929    0.174433    1.222519
      8          8           0        1.791218    0.760986   -0.861162
      9          8           0       -0.953855   -2.449236    0.300190
     10          8           0       -2.404223   -0.152834   -0.732109
     11          8           0       -1.227289    2.288350    0.459798
     12          1           0        2.036984   -1.167642   -1.579744
     13          1           0        3.146431   -0.708196   -0.253726
     14          1           0        1.407064   -1.861254    1.052585
     15          1           0        1.310164    2.124260    0.635808
     16          1           0       -1.467246   -0.028028    1.119003
     17          1           0       -0.525562    1.471773   -1.330333
     18          1           0       -0.228193   -1.439191   -1.265755
     19          1           0       -1.067023   -2.353395    1.261745
     20          1           0       -2.751878   -1.045709   -0.562245
     21          1           0       -0.938265    3.149159    0.116553
 ---------------------------------------------------------------------

 SCF Done:  E(RB3LYP) =  -610.804807909     A.U. after   12 cycles

 The electronic state is 1-A.
 Alpha  occ. eigenvalues --  -19.18362 -19.17568 -19.17290 -19.17118 -19.16885
 Alpha  occ. eigenvalues --  -10.29388 -10.25125 -10.24796 -10.24693 -10.24563
 Alpha  occ. eigenvalues --  -10.23937  -1.11108  -1.05174  -1.03812  -1.02476
 Alpha  occ. eigenvalues --   -1.01123  -0.79117  -0.78374  -0.67661  -0.65735
 Alpha  occ. eigenvalues --   -0.62808  -0.57739  -0.55210  -0.54503  -0.52777
 Alpha  occ. eigenvalues --   -0.51041  -0.47687  -0.46148  -0.45068  -0.44627
 Alpha  occ. eigenvalues --   -0.43571  -0.41587  -0.39926  -0.38554  -0.37356
 Alpha  occ. eigenvalues --   -0.35958  -0.34883  -0.34823  -0.31918  -0.30899
 Alpha  occ. eigenvalues --   -0.30077  -0.27020  -0.26371
 Alpha virt. eigenvalues --    0.01162   0.01517   0.01941   0.02914   0.03771
 Alpha virt. eigenvalues --    0.04455   0.04744   0.05348   0.06102   0.07961
 Alpha virt. eigenvalues --    0.08293   0.09504   0.09798   0.10587   0.11503

 Mulliken atomic charges:
              1
     1  C   -0.207787
     2  C    0.361459
     3  C    0.101944
     4  C    0.119936
     5  C    0.055688
     6  C   -0.116908
     7  O   -0.440531
     8  O   -0.449378
     9  O   -0.622291
    10  O   -0.625521
    11  O   -0.628749
    12  H    0.173120
    13  H    0.165103
    14  H    0.183859
    15  H    0.171322
    16  H    0.168701
    17  H    0.178512
    18  H    0.180573
    19  H    0.405973
    20  H    0.409230
    21  H    0.415744
 Sum of Mulliken atomic charges =   0.00000

 Dipole moment (field-independent basis, Debye):
    X=              2.4834    Y=             -1.4666    Z=              0.5225  Tot=              2.9311
 Quadrupole moment (field-independent basis, Debye-Ang):
   XX=            -71.1673   YY=            -58.7182   ZZ=            -67.3391
   XY=              0.6319   XZ=             -2.6503   YZ=             -4.3588

 Normal termination of Gaussian 09 at Mon Apr 15 17:43:42 2019.
