 Gaussian 09, Revision C.01,
 Gaussian 09:  EM64L-G09RevC.01 23-Sep-2011

 -----------------------------------------------------------
 # B3LYP/6-31+G** test scrf=(pcm,solvent=water,smd,dovacuum)
 -----------------------------------------------------------

 99/5=1,9=1/99;
 -------
 comment
 -------
 Charge =  0 Multiplicity = 1

                         Standard orientation:
 ---------------------------------------------------------------------
 Center     Atomic      Atomic             Coordinates (Angstroms)
 Number     Number       Type             X           Y           Z
 ---------------------------------------------------------------------
      1          6           0        1.959782    0.691266   -0.091926
      2          6           0        0.630805    1.117941   -0.713380
      3          6           0        0.631314   -1.110469   -0.682385
      4          6           0       -0.728124   -0.029086    1.135140
      5          6           0       -0.609378   -1.268740    0.219412
      6          6           0       -0.519491    1.269235    0.302683
      7          8           0        0.379687   -0.032576   -1.564471
      8          8           0        1.776442   -0.737734    0.096800
      9          8           0       -1.724460    1.633443   -0.367610
     10          8           0        0.156335   -0.121887    2.247493
     11          8           0       -1.777520   -1.378614   -0.604780
     12          1           0        2.172585    1.150305    0.875479
     13          1           0        2.796243    0.861502   -0.776082
     14          1           0        0.699572    1.995407   -1.357445
     15          1           0        0.850457   -2.004276   -1.272721
     16          1           0       -1.742280    0.008722    1.545348
     17          1           0       -0.530377   -2.169768    0.837886
     18          1           0       -0.280670    2.088166    0.989560
     19          1           0       -2.111840    0.809188   -0.710248
     20          1           0        0.987342   -0.500759    1.907567
     21          1           0       -1.514354   -1.160434   -1.516068
 ---------------------------------------------------------------------

 SCF Done:  E(RB3LYP) =  -610.802755334     A.U. after   12 cycles

 The electronic state is 1-A.
 Alpha  occ. eigenvalues --  -19.18861 -19.18654 -19.17676 -19.16848 -19.16747
 Alpha  occ. eigenvalues --  -10.30082 -10.25187 -10.25017 -10.24743 -10.24703
 Alpha  occ. eigenvalues --  -10.24471  -1.11802  -1.04797  -1.03763  -1.03408
 Alpha  occ. eigenvalues --   -1.01293  -0.79648  -0.77692  -0.68002  -0.66368
 Alpha  occ. eigenvalues --   -0.63447  -0.59181  -0.57018  -0.53244  -0.50980
 Alpha  occ. eigenvalues --   -0.50077  -0.48038  -0.47402  -0.45340  -0.44611
 Alpha  occ. eigenvalues --   -0.44161  -0.42299  -0.39991  -0.39083  -0.37980
 Alpha  occ. eigenvalues --   -0.36308  -0.36125  -0.35288  -0.32352  -0.31797
 Alpha  occ. eigenvalues --   -0.28672  -0.27176  -0.26921
 Alpha virt. eigenvalues --    0.00884   0.01296   0.02869   0.03014   0.04002
 Alpha virt. eigenvalues --    0.04362   0.05137   0.05475   0.05955   0.08168
 Alpha virt. eigenvalues --    0.08917   0.09805   0.10105   0.10551   0.11512

 Mulliken atomic charges:
              1
     1  C   -0.181174
     2  C    0.376340
     3  C    0.076314
     4  C    0.073367
     5  C    0.074051
     6  C   -0.186104
     7  O   -0.473371
     8  O   -0.497609
     9  O   -0.590598
    10  O   -0.582537
    11  O   -0.577605
    12  H    0.186986
    13  H    0.175165
    14  H    0.177835
    15  H    0.183003
    16  H    0.176757
    17  H    0.180225
    18  H    0.173571
    19  H    0.406691
    20  H    0.418981
    21  H    0.409713
 Sum of Mulliken atomic charges =   0.00000

 Dipole moment (field-independent basis, Debye):
    X=              3.2043    Y=             -0.3206    Z=             -1.9942  Tot=              3.7878
 Quadrupole moment (field-independent basis, Debye-Ang):
   XX=            -68.4706   YY=            -65.0517   ZZ=            -71.6476
   XY=              5.9092   XZ=              0.7498   YZ=              1.9181

 Normal termination of Gaussian 09 at Mon Apr 15 17:56:38 2019.
