 Gaussian 09, Revision C.01,
 Gaussian 09:  EM64L-G09RevC.01 23-Sep-2011

 ------------------------------------------------
 # mpw1pw91/6-31+g** nmr scrf=(pcm,solvent=water)
 ------------------------------------------------

 99/9=1/99;
 -------
 comment
 -------
 Charge =  0 Multiplicity = 1

                         Standard orientation:
 ---------------------------------------------------------------------
 Center     Atomic      Atomic             Coordinates (Angstroms)
 Number     Number       Type             X           Y           Z
 ---------------------------------------------------------------------
      1          6           0        2.031243    0.447013    0.149566
      2          6           0        0.854842    1.062124   -0.609710
      3          6           0        0.567635   -1.141305   -0.692392
      4          6           0       -0.875171    0.048008    0.983880
      5          6           0       -0.743216   -1.222018    0.100979
      6          6           0       -0.373123    1.339092    0.267943
      7          8           0        0.562960   -0.009793   -1.529496
      8          8           0        1.650268   -0.946478    0.244527
      9          8           0       -1.358930    1.891839   -0.598968
     10          8           0       -0.190493   -0.143874    2.223696
     11          8           0       -1.785650   -1.368332   -0.851326
     12          1           0        2.180042    0.844786    1.155702
     13          1           0        2.960132    0.536356   -0.422668
     14          1           0        1.116101    1.944731   -1.195710
     15          1           0        0.748042   -2.030078   -1.302089
     16          1           0       -1.932147    0.193319    1.238538
     17          1           0       -0.698825   -2.089891    0.774660
     18          1           0       -0.093885    2.057052    1.052991
     19          1           0       -2.112864    2.163122   -0.050955
     20          1           0        0.632426   -0.618128    2.006813
     21          1           0       -2.597514   -1.585649   -0.366346
 ---------------------------------------------------------------------

 SCF Done:  E(RmPW1PW91) =  -610.644268276     A.U. after   12 cycles

      1  C    Isotropic =   129.7923   Anisotropy =    57.5939

      2  C    Isotropic =   117.2784   Anisotropy =    45.6100

      3  C    Isotropic =    92.0333   Anisotropy =    38.1927

      4  C    Isotropic =   119.5090   Anisotropy =    46.9920

      5  C    Isotropic =   124.2503   Anisotropy =    48.4428

      6  C    Isotropic =   122.0612   Anisotropy =    48.1594

      7  O    Isotropic =   258.2177   Anisotropy =    76.6222

      8  O    Isotropic =   263.9424   Anisotropy =   111.3525

      9  O    Isotropic =   284.9884   Anisotropy =    63.3054

     10  O    Isotropic =   280.5102   Anisotropy =    41.9060

     11  O    Isotropic =   290.6864   Anisotropy =    54.3347

     12  H    Isotropic =    27.4874   Anisotropy =     6.9972

     13  H    Isotropic =    27.7372   Anisotropy =    11.5275

     14  H    Isotropic =    26.9415   Anisotropy =     7.8199

     15  H    Isotropic =    25.9165   Anisotropy =     7.5789

     16  H    Isotropic =    28.2479   Anisotropy =     4.6611

     17  H    Isotropic =    27.8815   Anisotropy =     4.6422

     18  H    Isotropic =    27.7781   Anisotropy =     5.3073

     19  H    Isotropic =    29.9078   Anisotropy =    18.5701

     20  H    Isotropic =    28.5565   Anisotropy =    15.3881

     21  H    Isotropic =    29.8038   Anisotropy =    19.2029

 The electronic state is 1-A.
 Alpha  occ. eigenvalues --  -19.27886 -19.27728 -19.26557 -19.26261 -19.25945
 Alpha  occ. eigenvalues --  -10.36162 -10.31886 -10.31493 -10.31472 -10.31430
 Alpha  occ. eigenvalues --  -10.31140  -1.14659  -1.07589  -1.06840  -1.06389
 Alpha  occ. eigenvalues --   -1.04114  -0.82694  -0.80296  -0.70584  -0.69006
 Alpha  occ. eigenvalues --   -0.65327  -0.61311  -0.57601  -0.55024  -0.53708
 Alpha  occ. eigenvalues --   -0.51884  -0.51540  -0.49627  -0.46490  -0.46457
 Alpha  occ. eigenvalues --   -0.45034  -0.44134  -0.41272  -0.40150  -0.39595
 Alpha  occ. eigenvalues --   -0.38697  -0.37398  -0.35979  -0.32783  -0.32270
 Alpha  occ. eigenvalues --   -0.30718  -0.28669  -0.27872
 Alpha virt. eigenvalues --    0.00674   0.01469   0.02096   0.02646   0.03435
 Alpha virt. eigenvalues --    0.04306   0.05373   0.05525   0.05653   0.08174
 Alpha virt. eigenvalues --    0.08200   0.09608   0.09902   0.10275   0.11230

 Mulliken atomic charges:
              1
     1  C   -0.175631
     2  C    0.290045
     3  C   -0.013831
     4  C    0.028914
     5  C    0.009748
     6  C   -0.223075
     7  O   -0.345510
     8  O   -0.440518
     9  O   -0.543967
    10  O   -0.522614
    11  O   -0.535451
    12  H    0.189013
    13  H    0.183779
    14  H    0.191026
    15  H    0.185763
    16  H    0.171321
    17  H    0.189934
    18  H    0.182822
    19  H    0.385532
    20  H    0.399694
    21  H    0.393006
 Sum of Mulliken atomic charges =   0.00000

 Dipole moment (field-independent basis, Debye):
    X=             -0.2062    Y=              0.7471    Z=              2.7620  Tot=              2.8687
 Quadrupole moment (field-independent basis, Debye-Ang):
   XX=            -53.5425   YY=            -58.9515   ZZ=            -78.0343
   XY=              4.0488   XZ=             -4.8813   YZ=              1.8798

 Normal termination of Gaussian 09 at Fri Apr 12 10:29:04 2019.
