 Gaussian 09, Revision C.01,
 Gaussian 09:  EM64L-G09RevC.01 23-Sep-2011

 ------------------------------------------------
 # mpw1pw91/6-31+g** nmr scrf=(pcm,solvent=water)
 ------------------------------------------------

 99/9=1/99;
 -------
 comment
 -------
 Charge =  0 Multiplicity = 1

                         Standard orientation:
 ---------------------------------------------------------------------
 Center     Atomic      Atomic             Coordinates (Angstroms)
 Number     Number       Type             X           Y           Z
 ---------------------------------------------------------------------
      1          6           0        1.943357    0.576437    0.408333
      2          6           0        0.861629    1.072005   -0.567167
      3          6           0        0.757726   -1.140393   -0.554442
      4          6           0       -1.021448    0.068683    0.828510
      5          6           0       -0.606221   -1.265243    0.142057
      6          6           0       -0.493511    1.332653    0.097610
      7          8           0        0.746647   -0.053804   -1.456140
      8          8           0        1.775505   -0.855090    0.397912
      9          8           0       -1.371073    1.760468   -0.937732
     10          8           0       -0.526735    0.155528    2.163541
     11          8           0       -1.526629   -1.657618   -0.869114
     12          1           0        1.814758    0.952227    1.425322
     13          1           0        2.947126    0.821581    0.045341
     14          1           0        1.164914    1.937904   -1.158366
     15          1           0        1.004176   -2.051651   -1.106101
     16          1           0       -2.122695    0.111245    0.827268
     17          1           0       -0.523324   -2.043292    0.916861
     18          1           0       -0.372269    2.117624    0.858120
     19          1           0       -2.202552    2.039009   -0.521467
     20          1           0       -0.777246   -0.657568    2.631415
     21          1           0       -2.363809   -1.887811   -0.435537
 ---------------------------------------------------------------------

 SCF Done:  E(RmPW1PW91) =  -610.643213267     A.U. after   12 cycles

      1  C    Isotropic =   130.1473   Anisotropy =    62.0056

      2  C    Isotropic =   118.2891   Anisotropy =    46.8258

      3  C    Isotropic =    93.1300   Anisotropy =    34.8506

      4  C    Isotropic =   118.0943   Anisotropy =    43.8826

      5  C    Isotropic =   121.7963   Anisotropy =    42.7337

      6  C    Isotropic =   123.5340   Anisotropy =    50.5764

      7  O    Isotropic =   259.3083   Anisotropy =    75.6597

      8  O    Isotropic =   265.6580   Anisotropy =   114.6072

      9  O    Isotropic =   284.7598   Anisotropy =    68.1364

     10  O    Isotropic =   280.7295   Anisotropy =    80.2820

     11  O    Isotropic =   288.0487   Anisotropy =    54.8359

     12  H    Isotropic =    27.3816   Anisotropy =     6.0459

     13  H    Isotropic =    27.7430   Anisotropy =    11.1253

     14  H    Isotropic =    26.9396   Anisotropy =     7.8948

     15  H    Isotropic =    26.0226   Anisotropy =     7.3723

     16  H    Isotropic =    28.0068   Anisotropy =     4.3780

     17  H    Isotropic =    28.1969   Anisotropy =     4.4767

     18  H    Isotropic =    27.8838   Anisotropy =     5.1136

     19  H    Isotropic =    29.8994   Anisotropy =    18.7916

     20  H    Isotropic =    30.2915   Anisotropy =    17.9681

     21  H    Isotropic =    29.8629   Anisotropy =    18.9560

 The electronic state is 1-A.
 Alpha  occ. eigenvalues --  -19.27271 -19.26629 -19.26471 -19.26439 -19.26243
 Alpha  occ. eigenvalues --  -10.35631 -10.31646 -10.31522 -10.31455 -10.31369
 Alpha  occ. eigenvalues --  -10.30330  -1.14110  -1.07782  -1.06843  -1.06365
 Alpha  occ. eigenvalues --   -1.03672  -0.82233  -0.80233  -0.70478  -0.68756
 Alpha  occ. eigenvalues --   -0.64928  -0.60435  -0.56572  -0.55778  -0.54048
 Alpha  occ. eigenvalues --   -0.52446  -0.50456  -0.49365  -0.46162  -0.45902
 Alpha  occ. eigenvalues --   -0.45525  -0.42783  -0.42553  -0.40427  -0.39480
 Alpha  occ. eigenvalues --   -0.36910  -0.36428  -0.35900  -0.32953  -0.31612
 Alpha  occ. eigenvalues --   -0.29810  -0.29090  -0.27664
 Alpha virt. eigenvalues --    0.00561   0.01661   0.01932   0.02430   0.03347
 Alpha virt. eigenvalues --    0.04208   0.05269   0.05604   0.06082   0.08066
 Alpha virt. eigenvalues --    0.08284   0.09372   0.09706   0.10470   0.11539

 Mulliken atomic charges:
              1
     1  C   -0.206738
     2  C    0.365979
     3  C   -0.101817
     4  C    0.106647
     5  C    0.029600
     6  C   -0.269728
     7  O   -0.339735
     8  O   -0.359081
     9  O   -0.549378
    10  O   -0.538651
    11  O   -0.535527
    12  H    0.186376
    13  H    0.173259
    14  H    0.187444
    15  H    0.181280
    16  H    0.159797
    17  H    0.170191
    18  H    0.181637
    19  H    0.385457
    20  H    0.382987
    21  H    0.390001
 Sum of Mulliken atomic charges =   0.00000

 Dipole moment (field-independent basis, Debye):
    X=             -2.9157    Y=              0.2337    Z=              4.4123  Tot=              5.2938
 Quadrupole moment (field-independent basis, Debye-Ang):
   XX=            -55.2182   YY=            -58.2535   ZZ=            -73.1109
   XY=              5.6885   XZ=             -6.8853   YZ=             -2.7678

 Normal termination of Gaussian 09 at Fri Apr 12 10:29:29 2019.
