 Gaussian 09, Revision C.01,
 Gaussian 09:  EM64L-G09RevC.01 23-Sep-2011

 -----------------------------------------------------------
 # B3LYP/6-31+G** test scrf=(pcm,solvent=water,smd,dovacuum)
 -----------------------------------------------------------

 99/5=1,9=1/99;
 -------
 comment
 -------
 Charge =  0 Multiplicity = 1

                         Standard orientation:
 ---------------------------------------------------------------------
 Center     Atomic      Atomic             Coordinates (Angstroms)
 Number     Number       Type             X           Y           Z
 ---------------------------------------------------------------------
      1          6           0        2.122380    0.446948    0.705439
      2          6           0        1.163584    0.958836   -0.371994
      3          6           0        0.876211   -1.231237   -0.263540
      4          6           0       -1.226816    0.151485   -0.018995
      5          6           0       -0.596149   -1.232343    0.216804
      6          6           0       -0.245041    1.322786    0.175802
      7          8           0        1.082367   -0.207595   -1.219347
      8          8           0        1.744171   -0.933846    0.833499
      9          8           0       -0.813440    2.431011   -0.518794
     10          8           0       -2.432244    0.332176    0.712880
     11          8           0       -1.387014   -2.160342   -0.521445
     12          1           0        2.010779    0.946204    1.672148
     13          1           0        3.165858    0.520306    0.377111
     14          1           0        1.565584    1.779446   -0.968505
     15          1           0        1.153522   -2.190494   -0.710855
     16          1           0       -1.523908    0.174042   -1.071977
     17          1           0       -0.604412   -1.477590    1.288144
     18          1           0       -0.167877    1.554290    1.248957
     19          1           0       -0.345975    3.232113   -0.232770
     20          1           0       -2.210068    0.324991    1.658852
     21          1           0       -1.159238   -3.053390   -0.216557
 ---------------------------------------------------------------------

 SCF Done:  E(RB3LYP) =  -610.805156149     A.U. after   12 cycles

 The electronic state is 1-A.
 Alpha  occ. eigenvalues --  -19.18332 -19.17489 -19.17057 -19.16932 -19.16892
 Alpha  occ. eigenvalues --  -10.29291 -10.24958 -10.24838 -10.24673 -10.24565
 Alpha  occ. eigenvalues --  -10.23873  -1.11068  -1.04898  -1.03690  -1.02501
 Alpha  occ. eigenvalues --   -1.01130  -0.79024  -0.78085  -0.67629  -0.66125
 Alpha  occ. eigenvalues --   -0.62550  -0.58243  -0.54831  -0.53132  -0.52209
 Alpha  occ. eigenvalues --   -0.51487  -0.49132  -0.46811  -0.45362  -0.43347
 Alpha  occ. eigenvalues --   -0.42682  -0.41372  -0.40179  -0.38491  -0.37188
 Alpha  occ. eigenvalues --   -0.36419  -0.34896  -0.33870  -0.32377  -0.30627
 Alpha  occ. eigenvalues --   -0.29648  -0.27307  -0.26232
 Alpha virt. eigenvalues --    0.01092   0.01725   0.01893   0.02778   0.03402
 Alpha virt. eigenvalues --    0.04553   0.04889   0.05494   0.05877   0.07929
 Alpha virt. eigenvalues --    0.08352   0.09261   0.09731   0.10472   0.11651

 Mulliken atomic charges:
              1
     1  C   -0.202503
     2  C    0.373007
     3  C    0.079239
     4  C    0.015923
     5  C    0.082566
     6  C   -0.031414
     7  O   -0.433388
     8  O   -0.448747
     9  O   -0.637813
    10  O   -0.616848
    11  O   -0.624098
    12  H    0.170513
    13  H    0.164429
    14  H    0.180054
    15  H    0.171207
    16  H    0.175516
    17  H    0.177406
    18  H    0.172187
    19  H    0.414335
    20  H    0.403200
    21  H    0.415229
 Sum of Mulliken atomic charges =   0.00000

 Dipole moment (field-independent basis, Debye):
    X=              4.7812    Y=              1.3741    Z=              4.8675  Tot=              6.9599
 Quadrupole moment (field-independent basis, Debye-Ang):
   XX=            -78.9375   YY=            -50.3448   ZZ=            -65.9542
   XY=              8.8477   XZ=             -5.0411   YZ=              2.8461

 Normal termination of Gaussian 09 at Mon Apr 15 17:44:43 2019.
