 Gaussian 09, Revision C.01,
 Gaussian 09:  EM64L-G09RevC.01 23-Sep-2011

 -----------------------------------------------------------
 # B3LYP/6-31+G** test scrf=(pcm,solvent=water,smd,dovacuum)
 -----------------------------------------------------------

 99/5=1,9=1/99;
 -------
 comment
 -------
 Charge =  0 Multiplicity = 1

                         Standard orientation:
 ---------------------------------------------------------------------
 Center     Atomic      Atomic             Coordinates (Angstroms)
 Number     Number       Type             X           Y           Z
 ---------------------------------------------------------------------
      1          6           0       -1.942589   -0.690376    0.074391
      2          6           0       -0.700191   -1.030613   -0.766767
      3          6           0       -0.727150    1.169924   -0.514322
      4          6           0        0.855414   -0.101541    1.029496
      5          6           0        0.549074    1.251037    0.347084
      6          6           0        0.573063   -1.278531    0.063397
      7          8           0       -0.528395    0.185656   -1.517829
      8          8           0       -1.854450    0.739292    0.235682
      9          8           0        1.719404   -1.348357   -0.789346
     10          8           0        0.083050   -0.193704    2.222507
     11          8           0        1.636413    1.649588   -0.481979
     12          1           0       -1.948346   -1.170899    1.054468
     13          1           0       -2.864004   -0.932864   -0.465663
     14          1           0       -0.871010   -1.842944   -1.478096
     15          1           0       -0.942874    2.125635   -0.999198
     16          1           0        1.928732   -0.112944    1.261328
     17          1           0        0.433313    2.018129    1.118223
     18          1           0        0.459112   -2.208348    0.641288
     19          1           0        1.541815   -1.993084   -1.494330
     20          1           0        0.394030   -0.972004    2.712795
     21          1           0        1.775328    0.910111   -1.102764
 ---------------------------------------------------------------------

 SCF Done:  E(RB3LYP) =  -610.805114516     A.U. after   12 cycles

 The electronic state is 1-A.
 Alpha  occ. eigenvalues --  -19.18196 -19.17545 -19.17272 -19.16933 -19.16920
 Alpha  occ. eigenvalues --  -10.29165 -10.25004 -10.24804 -10.24757 -10.24484
 Alpha  occ. eigenvalues --  -10.23893  -1.11213  -1.04748  -1.03477  -1.03371
 Alpha  occ. eigenvalues --   -1.00960  -0.79155  -0.77635  -0.67946  -0.65919
 Alpha  occ. eigenvalues --   -0.62870  -0.58112  -0.55469  -0.53864  -0.52112
 Alpha  occ. eigenvalues --   -0.50082  -0.47544  -0.46307  -0.45759  -0.44232
 Alpha  occ. eigenvalues --   -0.43267  -0.42577  -0.40126  -0.38750  -0.38124
 Alpha  occ. eigenvalues --   -0.36228  -0.35335  -0.33766  -0.31640  -0.30657
 Alpha  occ. eigenvalues --   -0.28628  -0.27774  -0.26264
 Alpha virt. eigenvalues --    0.00734   0.01330   0.02543   0.02810   0.03913
 Alpha virt. eigenvalues --    0.04424   0.05276   0.05470   0.06232   0.08176
 Alpha virt. eigenvalues --    0.09004   0.09524   0.10247   0.10339   0.11553

 Mulliken atomic charges:
              1
     1  C   -0.197667
     2  C    0.286391
     3  C    0.052934
     4  C   -0.001060
     5  C    0.135486
     6  C   -0.017474
     7  O   -0.446039
     8  O   -0.438377
     9  O   -0.627726
    10  O   -0.602527
    11  O   -0.568012
    12  H    0.177029
    13  H    0.164724
    14  H    0.176284
    15  H    0.167686
    16  H    0.168925
    17  H    0.173959
    18  H    0.164881
    19  H    0.410867
    20  H    0.415351
    21  H    0.404365
 Sum of Mulliken atomic charges =   0.00000

 Dipole moment (field-independent basis, Debye):
    X=             -0.5641    Y=             -7.0919    Z=              0.1183  Tot=              7.1153
 Quadrupole moment (field-independent basis, Debye-Ang):
   XX=            -72.8077   YY=            -57.5506   ZZ=            -63.6803
   XY=             -0.8737   XZ=              3.5561   YZ=             -0.1279

 Normal termination of Gaussian 09 at Mon Apr 15 18:01:46 2019.
