 Gaussian 09, Revision C.01,
 Gaussian 09:  EM64L-G09RevC.01 23-Sep-2011

 ------------------------------------------------
 # mpw1pw91/6-31+g** nmr scrf=(pcm,solvent=water)
 ------------------------------------------------

 99/9=1/99;
 -------
 comment
 -------
 Charge =  0 Multiplicity = 1

                         Standard orientation:
 ---------------------------------------------------------------------
 Center     Atomic      Atomic             Coordinates (Angstroms)
 Number     Number       Type             X           Y           Z
 ---------------------------------------------------------------------
      1          6           0        2.004576    0.507687    0.121398
      2          6           0        0.817284    1.013698   -0.712478
      3          6           0        0.613298   -1.187913   -0.559804
      4          6           0       -0.860622    0.180128    1.016162
      5          6           0       -0.656340   -1.187430    0.318900
      6          6           0       -0.459182    1.344424    0.080178
      7          8           0        0.527871   -0.150473   -1.518688
      8          8           0        1.768126   -0.913305    0.220004
      9          8           0       -1.514327    1.632445   -0.831349
     10          8           0       -0.098285    0.308445    2.211040
     11          8           0       -1.816037   -1.381975   -0.493119
     12          1           0        2.048802    0.940570    1.121909
     13          1           0        2.952739    0.673410   -0.401024
     14          1           0        1.070137    1.833365   -1.387281
     15          1           0        0.743106   -2.138419   -1.088251
     16          1           0       -1.934021    0.280484    1.228060
     17          1           0       -0.568695   -1.979480    1.077796
     18          1           0       -0.309386    2.243183    0.686533
     19          1           0       -1.664485    0.805619   -1.325375
     20          1           0       -0.323229   -0.435876    2.792401
     21          1           0       -1.707839   -2.207503   -0.994006
 ---------------------------------------------------------------------

 SCF Done:  E(RmPW1PW91) =  -610.646224873     A.U. after   12 cycles

      1  C    Isotropic =   130.1401   Anisotropy =    64.0158

      2  C    Isotropic =   116.5853   Anisotropy =    45.0509

      3  C    Isotropic =    92.4741   Anisotropy =    33.1864

      4  C    Isotropic =   121.2414   Anisotropy =    49.2562

      5  C    Isotropic =   122.0732   Anisotropy =    43.8506

      6  C    Isotropic =   124.6444   Anisotropy =    51.4137

      7  O    Isotropic =   257.2047   Anisotropy =    57.3335

      8  O    Isotropic =   266.0267   Anisotropy =   105.6158

      9  O    Isotropic =   285.7722   Anisotropy =    37.9588

     10  O    Isotropic =   288.2833   Anisotropy =    79.2054

     11  O    Isotropic =   292.6158   Anisotropy =    70.3937

     12  H    Isotropic =    27.1335   Anisotropy =     5.9520

     13  H    Isotropic =    27.6942   Anisotropy =    11.1236

     14  H    Isotropic =    27.0292   Anisotropy =     8.3117

     15  H    Isotropic =    26.2037   Anisotropy =     7.5156

     16  H    Isotropic =    27.5465   Anisotropy =     4.5503

     17  H    Isotropic =    28.0594   Anisotropy =     5.2819

     18  H    Isotropic =    28.0130   Anisotropy =     5.9125

     19  H    Isotropic =    28.3528   Anisotropy =    14.2011

     20  H    Isotropic =    30.2393   Anisotropy =    18.6721

     21  H    Isotropic =    30.0327   Anisotropy =    19.5596

 The electronic state is 1-A.
 Alpha  occ. eigenvalues --  -19.27688 -19.27126 -19.26805 -19.26412 -19.25809
 Alpha  occ. eigenvalues --  -10.35948 -10.31595 -10.31528 -10.31512 -10.31266
 Alpha  occ. eigenvalues --  -10.30394  -1.14364  -1.07997  -1.06809  -1.06410
 Alpha  occ. eigenvalues --   -1.03731  -0.81972  -0.80551  -0.70540  -0.68581
 Alpha  occ. eigenvalues --   -0.65357  -0.60324  -0.57596  -0.56081  -0.53999
 Alpha  occ. eigenvalues --   -0.52338  -0.49485  -0.48179  -0.47872  -0.46568
 Alpha  occ. eigenvalues --   -0.45181  -0.43304  -0.41919  -0.40523  -0.39681
 Alpha  occ. eigenvalues --   -0.37981  -0.36745  -0.35145  -0.32631  -0.32477
 Alpha  occ. eigenvalues --   -0.30490  -0.28925  -0.27579
 Alpha virt. eigenvalues --    0.00730   0.01260   0.02295   0.02699   0.03609
 Alpha virt. eigenvalues --    0.04364   0.05181   0.05414   0.06002   0.08121
 Alpha virt. eigenvalues --    0.08654   0.09368   0.10031   0.10181   0.11552

 Mulliken atomic charges:
              1
     1  C   -0.234453
     2  C    0.380729
     3  C   -0.194250
     4  C   -0.012974
     5  C    0.166117
     6  C   -0.217791
     7  O   -0.373985
     8  O   -0.350701
     9  O   -0.516757
    10  O   -0.543068
    11  O   -0.554179
    12  H    0.190527
    13  H    0.174149
    14  H    0.190003
    15  H    0.184038
    16  H    0.185333
    17  H    0.175543
    18  H    0.184157
    19  H    0.390222
    20  H    0.387435
    21  H    0.389906
 Sum of Mulliken atomic charges =   0.00000

 Dipole moment (field-independent basis, Debye):
    X=              0.7559    Y=             -2.9730    Z=              1.0640  Tot=              3.2469
 Quadrupole moment (field-independent basis, Debye-Ang):
   XX=            -70.1261   YY=            -58.5531   ZZ=            -64.0401
   XY=             10.4750   XZ=             -3.0565   YZ=              0.9161

 Normal termination of Gaussian 09 at Fri Apr 12 10:12:40 2019.
