 Gaussian 09, Revision C.01,
 Gaussian 09:  EM64L-G09RevC.01 23-Sep-2011

 -----------------------------------------------------------
 # B3LYP/6-31+G** test scrf=(pcm,solvent=water,smd,dovacuum)
 -----------------------------------------------------------

 99/5=1,9=1/99;
 -------
 comment
 -------
 Charge =  0 Multiplicity = 1

                         Standard orientation:
 ---------------------------------------------------------------------
 Center     Atomic      Atomic             Coordinates (Angstroms)
 Number     Number       Type             X           Y           Z
 ---------------------------------------------------------------------
      1          6           0        2.030323    0.483805    0.068069
      2          6           0        0.771999    1.211352   -0.403164
      3          6           0        0.505455   -0.922868   -0.969762
      4          6           0       -0.726950   -0.218230    1.105623
      5          6           0       -0.720871   -1.208546   -0.083780
      6          6           0       -0.398853    1.214760    0.599579
      7          8           0        0.400058    0.370065   -1.520107
      8          8           0        1.686418   -0.910895   -0.141323
      9          8           0       -1.547644    1.784785   -0.022640
     10          8           0        0.144395   -0.655452    2.145514
     11          8           0       -1.859011   -1.020657   -0.928963
     12          1           0        2.272244    0.636404    1.121829
     13          1           0        2.895040    0.741662   -0.551059
     14          1           0        0.955541    2.215440   -0.788415
     15          1           0        0.619892   -1.644762   -1.781567
     16          1           0       -1.732922   -0.182976    1.538393
     17          1           0       -0.673823   -2.236673    0.298154
     18          1           0       -0.153604    1.846514    1.459415
     19          1           0       -1.827215    1.137593   -0.697796
     20          1           0        0.920594   -1.046786    1.705233
     21          1           0       -2.636090   -1.370830   -0.463431
 ---------------------------------------------------------------------

 SCF Done:  E(RB3LYP) =  -610.805342274     A.U. after   12 cycles

 The electronic state is 1-A.
 Alpha  occ. eigenvalues --  -19.18509 -19.18352 -19.17696 -19.16718 -19.16692
 Alpha  occ. eigenvalues --  -10.29760 -10.25017 -10.24979 -10.24635 -10.24553
 Alpha  occ. eigenvalues --  -10.24316  -1.11564  -1.04739  -1.03595  -1.03432
 Alpha  occ. eigenvalues --   -1.01072  -0.79522  -0.77595  -0.67955  -0.66159
 Alpha  occ. eigenvalues --   -0.63026  -0.59083  -0.56213  -0.53454  -0.51493
 Alpha  occ. eigenvalues --   -0.50058  -0.47739  -0.47069  -0.45811  -0.44429
 Alpha  occ. eigenvalues --   -0.43334  -0.42127  -0.39860  -0.39296  -0.38193
 Alpha  occ. eigenvalues --   -0.36446  -0.35673  -0.34731  -0.32189  -0.31507
 Alpha  occ. eigenvalues --   -0.28923  -0.27090  -0.26574
 Alpha virt. eigenvalues --    0.00798   0.01369   0.02682   0.03060   0.03746
 Alpha virt. eigenvalues --    0.04569   0.05363   0.05520   0.06031   0.08206
 Alpha virt. eigenvalues --    0.08671   0.09866   0.10034   0.10603   0.11625

 Mulliken atomic charges:
              1
     1  C   -0.165124
     2  C    0.329746
     3  C    0.079636
     4  C    0.010940
     5  C    0.119499
     6  C   -0.117269
     7  O   -0.453698
     8  O   -0.498059
     9  O   -0.587076
    10  O   -0.581169
    11  O   -0.626932
    12  H    0.185417
    13  H    0.172549
    14  H    0.176454
    15  H    0.173804
    16  H    0.172309
    17  H    0.182803
    18  H    0.171911
    19  H    0.409137
    20  H    0.417665
    21  H    0.427457
 Sum of Mulliken atomic charges =   0.00000

 Dipole moment (field-independent basis, Debye):
    X=              0.9326    Y=             -1.7634    Z=              0.5286  Tot=              2.0637
 Quadrupole moment (field-independent basis, Debye-Ang):
   XX=            -58.5324   YY=            -64.0421   ZZ=            -76.2403
   XY=             11.9311   XZ=             -0.7282   YZ=              2.1764

 Normal termination of Gaussian 09 at Mon Apr 15 17:46:44 2019.
