 Gaussian 09, Revision C.01,
 Gaussian 09:  EM64L-G09RevC.01 23-Sep-2011

 ------------------------------------------------
 # mpw1pw91/6-31+g** nmr scrf=(pcm,solvent=water)
 ------------------------------------------------

 99/9=1/99;
 -------
 comment
 -------
 Charge =  0 Multiplicity = 1

                         Standard orientation:
 ---------------------------------------------------------------------
 Center     Atomic      Atomic             Coordinates (Angstroms)
 Number     Number       Type             X           Y           Z
 ---------------------------------------------------------------------
      1          6           0        1.980121    0.629166    0.102945
      2          6           0        0.668334    1.258315   -0.370007
      3          6           0        0.589229   -0.875014   -0.987778
      4          6           0       -0.724215   -0.328953    1.084101
      5          6           0       -0.637994   -1.270770   -0.141327
      6          6           0       -0.489304    1.140097    0.642180
      7          8           0        0.382003    0.421761   -1.509126
      8          8           0        1.758840   -0.781541   -0.144890
      9          8           0       -1.720010    1.544758    0.030640
     10          8           0        0.166343   -0.725798    2.121989
     11          8           0       -1.808246   -1.207944   -0.942604
     12          1           0        2.195439    0.777351    1.163138
     13          1           0        2.825116    0.978444   -0.498317
     14          1           0        0.783182    2.284539   -0.727878
     15          1           0        0.776057   -1.561827   -1.816440
     16          1           0       -1.736543   -0.386474    1.496129
     17          1           0       -0.540493   -2.303629    0.208111
     18          1           0       -0.270312    1.749448    1.529738
     19          1           0       -1.603427    2.432266   -0.347228
     20          1           0        0.976613   -1.038742    1.680131
     21          1           0       -1.954093   -0.258301   -1.116153
 ---------------------------------------------------------------------

 SCF Done:  E(RmPW1PW91) =  -610.648498523     A.U. after   12 cycles

      1  C    Isotropic =   129.7955   Anisotropy =    61.7249

      2  C    Isotropic =   116.5912   Anisotropy =    44.5013

      3  C    Isotropic =    90.6824   Anisotropy =    37.9262

      4  C    Isotropic =   122.6489   Anisotropy =    52.4331

      5  C    Isotropic =   125.2202   Anisotropy =    49.7209

      6  C    Isotropic =   121.8371   Anisotropy =    50.0509

      7  O    Isotropic =   256.8471   Anisotropy =    68.5079

      8  O    Isotropic =   263.7161   Anisotropy =   104.6181

      9  O    Isotropic =   287.9813   Anisotropy =    86.6664

     10  O    Isotropic =   289.5062   Anisotropy =    37.1289

     11  O    Isotropic =   288.7615   Anisotropy =    23.2926

     12  H    Isotropic =    27.3520   Anisotropy =     6.8745

     13  H    Isotropic =    27.6815   Anisotropy =    11.4156

     14  H    Isotropic =    27.1488   Anisotropy =     8.0453

     15  H    Isotropic =    25.9780   Anisotropy =     7.6962

     16  H    Isotropic =    27.7738   Anisotropy =     4.9810

     17  H    Isotropic =    28.0597   Anisotropy =     5.6014

     18  H    Isotropic =    27.6430   Anisotropy =     6.0546

     19  H    Isotropic =    29.9636   Anisotropy =    19.2043

     20  H    Isotropic =    28.1586   Anisotropy =    16.5488

     21  H    Isotropic =    28.1618   Anisotropy =    16.2602

 The electronic state is 1-A.
 Alpha  occ. eigenvalues --  -19.28157 -19.28118 -19.27303 -19.25980 -19.25965
 Alpha  occ. eigenvalues --  -10.36176 -10.32334 -10.31885 -10.31494 -10.31392
 Alpha  occ. eigenvalues --  -10.31285  -1.14956  -1.08082  -1.06818  -1.06410
 Alpha  occ. eigenvalues --   -1.04282  -0.82690  -0.80529  -0.70941  -0.68721
 Alpha  occ. eigenvalues --   -0.65777  -0.61299  -0.58771  -0.55954  -0.54490
 Alpha  occ. eigenvalues --   -0.50939  -0.50058  -0.48577  -0.47679  -0.46564
 Alpha  occ. eigenvalues --   -0.45937  -0.44328  -0.42209  -0.41539  -0.39564
 Alpha  occ. eigenvalues --   -0.38016  -0.37225  -0.35978  -0.33718  -0.32794
 Alpha  occ. eigenvalues --   -0.30336  -0.29641  -0.27635
 Alpha virt. eigenvalues --    0.00691   0.01339   0.02670   0.02837   0.03661
 Alpha virt. eigenvalues --    0.04233   0.05005   0.05241   0.05961   0.08230
 Alpha virt. eigenvalues --    0.08794   0.09753   0.10032   0.10118   0.11078

 Mulliken atomic charges:
              1
     1  C   -0.199490
     2  C    0.213445
     3  C   -0.016509
     4  C   -0.136803
     5  C    0.101280
     6  C   -0.073378
     7  O   -0.377609
     8  O   -0.438743
     9  O   -0.570422
    10  O   -0.511383
    11  O   -0.505473
    12  H    0.192412
    13  H    0.186604
    14  H    0.193878
    15  H    0.187795
    16  H    0.191464
    17  H    0.193588
    18  H    0.184455
    19  H    0.391018
    20  H    0.399186
    21  H    0.394684
 Sum of Mulliken atomic charges =   0.00000

 Dipole moment (field-independent basis, Debye):
    X=              2.9243    Y=              4.5413    Z=             -0.2590  Tot=              5.4076
 Quadrupole moment (field-independent basis, Debye-Ang):
   XX=            -68.4597   YY=            -55.3747   ZZ=            -73.4456
   XY=             -1.3108   XZ=             -0.0679   YZ=              0.0658

 Normal termination of Gaussian 09 at Fri Apr 12 10:24:15 2019.
