 Gaussian 09, Revision C.01,
 Gaussian 09:  EM64L-G09RevC.01 23-Sep-2011

 -----------------------------------------------------------
 # B3LYP/6-31+G** test scrf=(pcm,solvent=water,smd,dovacuum)
 -----------------------------------------------------------

 99/5=1,9=1/99;
 -------
 comment
 -------
 Charge =  0 Multiplicity = 1

                         Standard orientation:
 ---------------------------------------------------------------------
 Center     Atomic      Atomic             Coordinates (Angstroms)
 Number     Number       Type             X           Y           Z
 ---------------------------------------------------------------------
      1          6           0       -2.111982    0.642994   -0.639169
      2          6           0       -1.085669    1.035927    0.423110
      3          6           0       -0.969970   -1.166275    0.224535
      4          6           0        1.218726    0.036795    0.047302
      5          6           0        0.502012   -1.279332   -0.253403
      6          6           0        0.327918    1.267085   -0.175852
      7          8           0       -1.089286   -0.169618    1.223511
      8          8           0       -1.804130   -0.744663   -0.860134
      9          8           0        1.030602    2.347619    0.442976
     10          8           0        2.404553    0.127316   -0.730737
     11          8           0        1.202504   -2.301304    0.452000
     12          1           0       -2.010707    1.187934   -1.581595
     13          1           0       -3.136642    0.748701   -0.263506
     14          1           0       -1.386696    1.867459    1.062054
     15          1           0       -1.331006   -2.115730    0.631542
     16          1           0        1.463688    0.018907    1.119253
     17          1           0        0.506883   -1.471952   -1.333949
     18          1           0        0.249587    1.450160   -1.255812
     19          1           0        0.710775    3.178231    0.056693
     20          1           0        2.788059    0.995752   -0.518458
     21          1           0        0.905906   -3.157435    0.103717
 ---------------------------------------------------------------------

 SCF Done:  E(RB3LYP) =  -610.804693556     A.U. after   12 cycles

 The electronic state is 1-A.
 Alpha  occ. eigenvalues --  -19.18319 -19.17530 -19.17164 -19.17093 -19.16861
 Alpha  occ. eigenvalues --  -10.29354 -10.24997 -10.24777 -10.24668 -10.24549
 Alpha  occ. eigenvalues --  -10.23888  -1.11064  -1.05136  -1.03758  -1.02421
 Alpha  occ. eigenvalues --   -1.01081  -0.79102  -0.78480  -0.67710  -0.65725
 Alpha  occ. eigenvalues --   -0.62581  -0.56871  -0.55445  -0.53968  -0.53153
 Alpha  occ. eigenvalues --   -0.51479  -0.48794  -0.45618  -0.45038  -0.44349
 Alpha  occ. eigenvalues --   -0.42823  -0.42191  -0.40353  -0.37832  -0.36982
 Alpha  occ. eigenvalues --   -0.36535  -0.34882  -0.34030  -0.32766  -0.30574
 Alpha  occ. eigenvalues --   -0.29704  -0.27194  -0.26356
 Alpha virt. eigenvalues --    0.01078   0.01434   0.01933   0.03051   0.03468
 Alpha virt. eigenvalues --    0.04538   0.04617   0.05527   0.06277   0.08007
 Alpha virt. eigenvalues --    0.08495   0.09333   0.09566   0.10599   0.11885

 Mulliken atomic charges:
              1
     1  C   -0.201926
     2  C    0.379776
     3  C    0.099445
     4  C    0.071330
     5  C    0.066984
     6  C   -0.074862
     7  O   -0.442309
     8  O   -0.450084
     9  O   -0.647927
    10  O   -0.626508
    11  O   -0.628797
    12  H    0.172087
    13  H    0.164330
    14  H    0.180956
    15  H    0.171274
    16  H    0.169838
    17  H    0.178382
    18  H    0.178785
    19  H    0.416102
    20  H    0.407542
    21  H    0.415584
 Sum of Mulliken atomic charges =   0.00000

 Dipole moment (field-independent basis, Debye):
    X=             -3.3194    Y=              3.6392    Z=             -2.4254  Tot=              5.4904
 Quadrupole moment (field-independent basis, Debye-Ang):
   XX=            -72.8045   YY=            -46.6258   ZZ=            -71.9181
   XY=             -0.1379   XZ=             -0.5968   YZ=             -2.7375

 Normal termination of Gaussian 09 at Tue Apr 16 01:41:51 2019.
