 Gaussian 09, Revision C.01,
 Gaussian 09:  EM64L-G09RevC.01 23-Sep-2011

 ------------------------------------------------
 # mpw1pw91/6-31+g** nmr scrf=(pcm,solvent=water)
 ------------------------------------------------

 99/9=1/99;
 -------
 comment
 -------
 Charge =  0 Multiplicity = 1

                         Standard orientation:
 ---------------------------------------------------------------------
 Center     Atomic      Atomic             Coordinates (Angstroms)
 Number     Number       Type             X           Y           Z
 ---------------------------------------------------------------------
      1          6           0       -1.942589   -0.690376    0.074391
      2          6           0       -0.700191   -1.030613   -0.766767
      3          6           0       -0.727150    1.169924   -0.514322
      4          6           0        0.855414   -0.101541    1.029496
      5          6           0        0.549074    1.251037    0.347084
      6          6           0        0.573063   -1.278531    0.063397
      7          8           0       -0.528395    0.185656   -1.517829
      8          8           0       -1.854450    0.739292    0.235682
      9          8           0        1.719404   -1.348357   -0.789346
     10          8           0        0.083050   -0.193704    2.222507
     11          8           0        1.636413    1.649588   -0.481979
     12          1           0       -1.948346   -1.170899    1.054468
     13          1           0       -2.864004   -0.932864   -0.465663
     14          1           0       -0.871010   -1.842944   -1.478096
     15          1           0       -0.942874    2.125635   -0.999198
     16          1           0        1.928732   -0.112944    1.261328
     17          1           0        0.433313    2.018129    1.118223
     18          1           0        0.459112   -2.208348    0.641288
     19          1           0        1.541815   -1.993084   -1.494330
     20          1           0        0.394030   -0.972004    2.712795
     21          1           0        1.775328    0.910111   -1.102764
 ---------------------------------------------------------------------

 SCF Done:  E(RmPW1PW91) =  -610.646487292     A.U. after   12 cycles

      1  C    Isotropic =   130.1219   Anisotropy =    64.8277

      2  C    Isotropic =   117.6457   Anisotropy =    45.9648

      3  C    Isotropic =    91.5855   Anisotropy =    33.9298

      4  C    Isotropic =   121.8940   Anisotropy =    50.5378

      5  C    Isotropic =   124.6151   Anisotropy =    46.1753

      6  C    Isotropic =   121.8678   Anisotropy =    50.6677

      7  O    Isotropic =   255.8643   Anisotropy =    59.3876

      8  O    Isotropic =   266.2826   Anisotropy =   104.3811

      9  O    Isotropic =   287.4803   Anisotropy =    87.7615

     10  O    Isotropic =   288.7317   Anisotropy =    68.9181

     11  O    Isotropic =   287.3651   Anisotropy =    23.4667

     12  H    Isotropic =    27.1378   Anisotropy =     5.8476

     13  H    Isotropic =    27.6962   Anisotropy =    11.1273

     14  H    Isotropic =    27.2059   Anisotropy =     8.0764

     15  H    Isotropic =    26.1000   Anisotropy =     7.6569

     16  H    Isotropic =    27.5870   Anisotropy =     4.4013

     17  H    Isotropic =    28.1013   Anisotropy =     5.5140

     18  H    Isotropic =    27.8915   Anisotropy =     5.9508

     19  H    Isotropic =    30.0534   Anisotropy =    18.9525

     20  H    Isotropic =    30.0167   Anisotropy =    19.1850

     21  H    Isotropic =    28.6317   Anisotropy =    14.8283

 The electronic state is 1-A.
 Alpha  occ. eigenvalues --  -19.27621 -19.27059 -19.26683 -19.26436 -19.25897
 Alpha  occ. eigenvalues --  -10.35539 -10.31914 -10.31809 -10.31540 -10.30971
 Alpha  occ. eigenvalues --  -10.30505  -1.14299  -1.08036  -1.06796  -1.06263
 Alpha  occ. eigenvalues --   -1.03748  -0.82153  -0.80415  -0.70587  -0.68518
 Alpha  occ. eigenvalues --   -0.65270  -0.60265  -0.57652  -0.56120  -0.54119
 Alpha  occ. eigenvalues --   -0.52200  -0.49550  -0.48246  -0.47615  -0.46104
 Alpha  occ. eigenvalues --   -0.45104  -0.44354  -0.41831  -0.40404  -0.39521
 Alpha  occ. eigenvalues --   -0.37673  -0.36816  -0.35274  -0.32995  -0.32226
 Alpha  occ. eigenvalues --   -0.30172  -0.29285  -0.27407
 Alpha virt. eigenvalues --    0.00614   0.01241   0.02344   0.02672   0.03864
 Alpha virt. eigenvalues --    0.04222   0.05052   0.05380   0.06094   0.08090
 Alpha virt. eigenvalues --    0.08900   0.09451   0.10048   0.10095   0.11307

 Mulliken atomic charges:
              1
     1  C   -0.236761
     2  C    0.256713
     3  C   -0.071011
     4  C   -0.097298
     5  C    0.139420
     6  C   -0.098289
     7  O   -0.377299
     8  O   -0.356241
     9  O   -0.564968
    10  O   -0.537452
    11  O   -0.506136
    12  H    0.187812
    13  H    0.174554
    14  H    0.189310
    15  H    0.182170
    16  H    0.187996
    17  H    0.184653
    18  H    0.174436
    19  H    0.387396
    20  H    0.390009
    21  H    0.390987
 Sum of Mulliken atomic charges =   0.00000

 Dipole moment (field-independent basis, Debye):
    X=             -0.5505    Y=             -6.4012    Z=              0.1325  Tot=              6.4262
 Quadrupole moment (field-independent basis, Debye-Ang):
   XX=            -71.4946   YY=            -57.6776   ZZ=            -63.0659
   XY=             -0.8995   XZ=              3.0947   YZ=             -0.0191

 Normal termination of Gaussian 09 at Fri Apr 12 10:20:16 2019.
