 Gaussian 09, Revision C.01,
 Gaussian 09:  EM64L-G09RevC.01 23-Sep-2011

 -----------------------------------------------------------
 # B3LYP/6-31+G** test scrf=(pcm,solvent=water,smd,dovacuum)
 -----------------------------------------------------------

 99/5=1,9=1/99;
 -------
 comment
 -------
 Charge =  0 Multiplicity = 1

                         Standard orientation:
 ---------------------------------------------------------------------
 Center     Atomic      Atomic             Coordinates (Angstroms)
 Number     Number       Type             X           Y           Z
 ---------------------------------------------------------------------
      1          6           0       -2.125374    0.624199   -0.623453
      2          6           0       -1.096594    1.015268    0.436361
      3          6           0       -0.956900   -1.184127    0.206730
      4          6           0        1.218620    0.050614    0.044163
      5          6           0        0.516626   -1.277825   -0.266385
      6          6           0        0.309979    1.269248   -0.172339
      7          8           0       -1.083381   -0.201831    1.220771
      8          8           0       -1.793710   -0.753620   -0.871554
      9          8           0        1.000792    2.359483    0.442590
     10          8           0        2.403970    0.157886   -0.730000
     11          8           0        1.195197   -2.385658    0.316223
     12          1           0       -2.041300    1.186033   -1.557439
     13          1           0       -3.148325    0.705134   -0.237211
     14          1           0       -1.400629    1.834703    1.089200
     15          1           0       -1.304475   -2.145319    0.596698
     16          1           0        1.464388    0.045326    1.118355
     17          1           0        0.525510   -1.463763   -1.343970
     18          1           0        0.222061    1.450919   -1.251729
     19          1           0        0.667227    3.185775    0.058531
     20          1           0        2.773829    1.032889   -0.519919
     21          1           0        1.260633   -2.226030    1.272784
 ---------------------------------------------------------------------

 SCF Done:  E(RB3LYP) =  -610.804469883     A.U. after   12 cycles

 The electronic state is 1-A.
 Alpha  occ. eigenvalues --  -19.18345 -19.17567 -19.17195 -19.17145 -19.16895
 Alpha  occ. eigenvalues --  -10.29382 -10.25031 -10.24814 -10.24646 -10.24602
 Alpha  occ. eigenvalues --  -10.23906  -1.11074  -1.05177  -1.03812  -1.02472
 Alpha  occ. eigenvalues --   -1.01094  -0.79138  -0.78284  -0.67740  -0.65735
 Alpha  occ. eigenvalues --   -0.62702  -0.58024  -0.55401  -0.54609  -0.52260
 Alpha  occ. eigenvalues --   -0.50036  -0.48708  -0.46429  -0.45102  -0.44505
 Alpha  occ. eigenvalues --   -0.43039  -0.41543  -0.40557  -0.37782  -0.37191
 Alpha  occ. eigenvalues --   -0.36912  -0.34983  -0.33964  -0.32439  -0.30898
 Alpha  occ. eigenvalues --   -0.29714  -0.27112  -0.26377
 Alpha virt. eigenvalues --    0.01057   0.01450   0.02006   0.03005   0.03841
 Alpha virt. eigenvalues --    0.04475   0.04599   0.05395   0.06097   0.07997
 Alpha virt. eigenvalues --    0.08549   0.09249   0.09804   0.10489   0.11468

 Mulliken atomic charges:
              1
     1  C   -0.205540
     2  C    0.372672
     3  C    0.099094
     4  C    0.098524
     5  C    0.038270
     6  C   -0.085604
     7  O   -0.444825
     8  O   -0.452784
     9  O   -0.646030
    10  O   -0.621257
    11  O   -0.598244
    12  H    0.172548
    13  H    0.164638
    14  H    0.180968
    15  H    0.174101
    16  H    0.168110
    17  H    0.179982
    18  H    0.179538
    19  H    0.416295
    20  H    0.408374
    21  H    0.401168
 Sum of Mulliken atomic charges =   0.00000

 Dipole moment (field-independent basis, Debye):
    X=             -2.6155    Y=              5.9703    Z=              0.5120  Tot=              6.5382
 Quadrupole moment (field-independent basis, Debye-Ang):
   XX=            -70.9430   YY=            -59.6122   ZZ=            -67.3722
   XY=             -0.0463   XZ=              3.2750   YZ=             -9.0309

 Normal termination of Gaussian 09 at Mon Apr 15 17:54:41 2019.
