 Gaussian 09, Revision C.01,
 Gaussian 09:  EM64L-G09RevC.01 23-Sep-2011

 ------------------------------------------------
 # mpw1pw91/6-31+g** nmr scrf=(pcm,solvent=water)
 ------------------------------------------------

 99/9=1/99;
 -------
 comment
 -------
 Charge =  0 Multiplicity = 1

                         Standard orientation:
 ---------------------------------------------------------------------
 Center     Atomic      Atomic             Coordinates (Angstroms)
 Number     Number       Type             X           Y           Z
 ---------------------------------------------------------------------
      1          6           0       -2.136913    0.598638   -0.621313
      2          6           0       -1.108963    1.005964    0.433165
      3          6           0       -0.940513   -1.193004    0.207716
      4          6           0        1.220216    0.065506    0.044360
      5          6           0        0.534859   -1.273934   -0.263041
      6          6           0        0.291395    1.272280   -0.183488
      7          8           0       -1.077533   -0.208789    1.219885
      8          8           0       -1.778347   -0.771472   -0.873363
      9          8           0        0.916332    2.463034    0.296985
     10          8           0        2.404150    0.187626   -0.728292
     11          8           0        1.224076   -2.373376    0.322060
     12          1           0       -2.069578    1.163439   -1.554532
     13          1           0       -3.158189    0.658884   -0.226975
     14          1           0       -1.424274    1.825859    1.080564
     15          1           0       -1.280493   -2.155924    0.600036
     16          1           0        1.467497    0.056414    1.120163
     17          1           0        0.547079   -1.460817   -1.340361
     18          1           0        0.198306    1.436770   -1.261671
     19          1           0        1.030667    2.376094    1.259261
     20          1           0        2.737601    1.086059   -0.558544
     21          1           0        1.281474   -2.215661    1.279461
 ---------------------------------------------------------------------

 SCF Done:  E(RmPW1PW91) =  -610.642762971     A.U. after   11 cycles

      1  C    Isotropic =   125.8506   Anisotropy =    41.1906

      2  C    Isotropic =   115.1231   Anisotropy =    41.2503

      3  C    Isotropic =    89.3505   Anisotropy =    22.9637

      4  C    Isotropic =   116.8201   Anisotropy =    15.0237

      5  C    Isotropic =   117.7096   Anisotropy =    30.5317

      6  C    Isotropic =   117.3080   Anisotropy =    24.8591

      7  O    Isotropic =   247.5206   Anisotropy =    39.2011

      8  O    Isotropic =   259.9333   Anisotropy =   122.5834

      9  O    Isotropic =   284.9782   Anisotropy =    61.1310

     10  O    Isotropic =   303.3478   Anisotropy =    40.5879

     11  O    Isotropic =   286.0798   Anisotropy =    47.7587

     12  H    Isotropic =    27.6879   Anisotropy =     7.7125

     13  H    Isotropic =    27.9020   Anisotropy =    11.0213

     14  H    Isotropic =    27.2070   Anisotropy =     6.5985

     15  H    Isotropic =    26.2650   Anisotropy =     6.4813

     16  H    Isotropic =    28.3602   Anisotropy =     3.4018

     17  H    Isotropic =    28.2518   Anisotropy =     2.7934

     18  H    Isotropic =    28.2448   Anisotropy =     3.7918

     19  H    Isotropic =    30.5016   Anisotropy =    16.2508

     20  H    Isotropic =    28.9698   Anisotropy =    17.4657

     21  H    Isotropic =    30.3180   Anisotropy =    15.7573

 The electronic state is 1-A.
 Alpha  occ. eigenvalues --  -19.28046 -19.27195 -19.27118 -19.26652 -19.26295
 Alpha  occ. eigenvalues --  -10.36075 -10.32198 -10.31914 -10.31639 -10.31435
 Alpha  occ. eigenvalues --  -10.30842  -1.14511  -1.08645  -1.07275  -1.05810
 Alpha  occ. eigenvalues --   -1.04228  -0.82345  -0.81280  -0.70458  -0.68657
 Alpha  occ. eigenvalues --   -0.65573  -0.61507  -0.57723  -0.56229  -0.53742
 Alpha  occ. eigenvalues --   -0.52628  -0.51941  -0.48114  -0.47328  -0.46790
 Alpha  occ. eigenvalues --   -0.45021  -0.42748  -0.42079  -0.40876  -0.39395
 Alpha  occ. eigenvalues --   -0.37684  -0.36845  -0.35591  -0.34986  -0.32106
 Alpha  occ. eigenvalues --   -0.31837  -0.28514  -0.27899
 Alpha virt. eigenvalues --    0.00843   0.01424   0.02059   0.02524   0.03767
 Alpha virt. eigenvalues --    0.04226   0.04590   0.05019   0.05752   0.07723
 Alpha virt. eigenvalues --    0.08040   0.09236   0.09818   0.10219   0.10814

 Mulliken atomic charges:
              1
     1  C   -0.258748
     2  C    0.340717
     3  C   -0.022499
     4  C    0.025620
     5  C    0.013313
     6  C   -0.199225
     7  O   -0.362942
     8  O   -0.380275
     9  O   -0.555960
    10  O   -0.537212
    11  O   -0.525749
    12  H    0.181830
    13  H    0.178036
    14  H    0.199704
    15  H    0.190876
    16  H    0.171903
    17  H    0.197424
    18  H    0.195588
    19  H    0.383889
    20  H    0.388230
    21  H    0.375478
 Sum of Mulliken atomic charges =   0.00000

 Dipole moment (field-independent basis, Debye):
    X=             -1.6950    Y=              3.4601    Z=              3.0592  Tot=              4.9198
 Quadrupole moment (field-independent basis, Debye-Ang):
   XX=            -67.9527   YY=            -70.1079   ZZ=            -62.2551
   XY=              1.0429   XZ=              5.8435   YZ=             -1.5639

 Normal termination of Gaussian 09 at Fri Apr 12 10:07:15 2019.
