 Gaussian 09, Revision C.01,
 Gaussian 09:  EM64L-G09RevC.01 23-Sep-2011

 ------------------------------------------------
 # mpw1pw91/6-31+g** nmr scrf=(pcm,solvent=water)
 ------------------------------------------------

 99/9=1/99;
 -------
 comment
 -------
 Charge =  0 Multiplicity = 1

                         Standard orientation:
 ---------------------------------------------------------------------
 Center     Atomic      Atomic             Coordinates (Angstroms)
 Number     Number       Type             X           Y           Z
 ---------------------------------------------------------------------
      1          6           0       -2.114440    0.577049   -0.673903
      2          6           0       -1.100131    1.033516    0.379624
      3          6           0       -0.957512   -1.174808    0.277018
      4          6           0        1.204103    0.062788    0.055146
      5          6           0        0.493738   -1.255968   -0.250314
      6          6           0        0.318642    1.285755   -0.205171
      7          8           0       -1.080863   -0.135878    1.231924
      8          8           0       -1.843848   -0.831665   -0.789723
      9          8           0        0.993704    2.379620    0.418748
     10          8           0        2.412075    0.101353   -0.695702
     11          8           0        1.144827   -2.343884    0.399420
     12          1           0       -1.983759    1.054171   -1.649328
     13          1           0       -3.143479    0.730318   -0.329112
     14          1           0       -1.430621    1.882407    0.980101
     15          1           0       -1.264052   -2.119057    0.734218
     16          1           0        1.424521    0.060298    1.131593
     17          1           0        0.462709   -1.418707   -1.336561
     18          1           0        0.252725    1.458123   -1.287801
     19          1           0        0.655674    3.203594    0.033466
     20          1           0        2.871103    0.916997   -0.433165
     21          1           0        2.081614   -2.294500    0.144862
 ---------------------------------------------------------------------

 SCF Done:  E(RmPW1PW91) =  -610.645043759     A.U. after   12 cycles

      1  C    Isotropic =   127.1822   Anisotropy =    46.8755

      2  C    Isotropic =   113.9896   Anisotropy =    40.1373

      3  C    Isotropic =    91.6061   Anisotropy =    25.4248

      4  C    Isotropic =   118.9541   Anisotropy =    21.5893

      5  C    Isotropic =   117.8509   Anisotropy =    29.4373

      6  C    Isotropic =   117.7017   Anisotropy =    25.0450

      7  O    Isotropic =   245.6635   Anisotropy =    47.2222

      8  O    Isotropic =   258.9976   Anisotropy =   131.1367

      9  O    Isotropic =   288.6079   Anisotropy =    35.0081

     10  O    Isotropic =   306.8848   Anisotropy =    37.3744

     11  O    Isotropic =   295.2547   Anisotropy =    47.6819

     12  H    Isotropic =    27.7755   Anisotropy =     7.4649

     13  H    Isotropic =    27.8639   Anisotropy =    10.9035

     14  H    Isotropic =    27.1560   Anisotropy =     6.7066

     15  H    Isotropic =    26.2283   Anisotropy =     6.4633

     16  H    Isotropic =    28.0273   Anisotropy =     3.4809

     17  H    Isotropic =    28.0468   Anisotropy =     3.2143

     18  H    Isotropic =    28.0505   Anisotropy =     3.9441

     19  H    Isotropic =    29.3090   Anisotropy =    19.4866

     20  H    Isotropic =    29.0402   Anisotropy =    18.3882

     21  H    Isotropic =    29.2665   Anisotropy =    17.8894

 The electronic state is 1-A.
 Alpha  occ. eigenvalues --  -19.27828 -19.26904 -19.26849 -19.26494 -19.26393
 Alpha  occ. eigenvalues --  -10.36077 -10.31946 -10.31756 -10.31215 -10.31183
 Alpha  occ. eigenvalues --  -10.30718  -1.14349  -1.08514  -1.07094  -1.05654
 Alpha  occ. eigenvalues --   -1.04064  -0.82230  -0.81433  -0.70483  -0.68539
 Alpha  occ. eigenvalues --   -0.64898  -0.59711  -0.58291  -0.56434  -0.54291
 Alpha  occ. eigenvalues --   -0.52358  -0.51166  -0.49115  -0.47201  -0.45734
 Alpha  occ. eigenvalues --   -0.44734  -0.43323  -0.42907  -0.40163  -0.38841
 Alpha  occ. eigenvalues --   -0.37572  -0.37175  -0.36133  -0.33589  -0.31405
 Alpha  occ. eigenvalues --   -0.30915  -0.28764  -0.28432
 Alpha virt. eigenvalues --    0.00778   0.01318   0.01779   0.02787   0.03709
 Alpha virt. eigenvalues --    0.04277   0.04429   0.05438   0.06219   0.07726
 Alpha virt. eigenvalues --    0.08522   0.09024   0.09548   0.10221   0.11482

 Mulliken atomic charges:
              1
     1  C   -0.255000
     2  C    0.369545
     3  C   -0.030987
     4  C   -0.076113
     5  C    0.087609
     6  C   -0.152374
     7  O   -0.357797
     8  O   -0.375556
     9  O   -0.579839
    10  O   -0.561980
    11  O   -0.543536
    12  H    0.177874
    13  H    0.177379
    14  H    0.196086
    15  H    0.188612
    16  H    0.195424
    17  H    0.187591
    18  H    0.184993
    19  H    0.393567
    20  H    0.390410
    21  H    0.384091
 Sum of Mulliken atomic charges =   0.00000

 Dipole moment (field-independent basis, Debye):
    X=             -0.3860    Y=              5.1600    Z=             -1.9513  Tot=              5.5301
 Quadrupole moment (field-independent basis, Debye-Ang):
   XX=            -62.5339   YY=            -58.7649   ZZ=            -70.2470
   XY=             -4.5755   XZ=              0.4861   YZ=             -3.3303

 Normal termination of Gaussian 09 at Fri Apr 12 09:57:06 2019.
