 Gaussian 09, Revision C.01,
 Gaussian 09:  EM64L-G09RevC.01 23-Sep-2011

 -----------------------------------------------------------
 # B3LYP/6-31+G** test scrf=(pcm,solvent=water,smd,dovacuum)
 -----------------------------------------------------------

 99/5=1,9=1/99;
 -------
 comment
 -------
 Charge =  0 Multiplicity = 1

                         Standard orientation:
 ---------------------------------------------------------------------
 Center     Atomic      Atomic             Coordinates (Angstroms)
 Number     Number       Type             X           Y           Z
 ---------------------------------------------------------------------
      1          6           0       -1.974194   -0.560957    0.245028
      2          6           0       -0.820976   -1.047072   -0.644164
      3          6           0       -0.685303    1.176009   -0.534537
      4          6           0        0.949702   -0.118720    0.937937
      5          6           0        0.624226    1.242419    0.269045
      6          6           0        0.492783   -1.340218    0.088494
      7          8           0       -0.585037    0.112844   -1.481417
      8          8           0       -1.796080    0.867938    0.285658
      9          8           0        1.492971   -1.712186   -0.860560
     10          8           0        0.309595   -0.115061    2.215698
     11          8           0        1.678492    1.691040   -0.578111
     12          1           0       -1.933273   -0.965828    1.258043
     13          1           0       -2.945950   -0.784026   -0.207037
     14          1           0       -1.092599   -1.878293   -1.297981
     15          1           0       -0.866679    2.107427   -1.077540
     16          1           0        2.040246   -0.178614    1.047876
     17          1           0        0.529211    1.990285    1.061158
     18          1           0        0.366844   -2.200300    0.756638
     19          1           0        1.323681   -1.204076   -1.671570
     20          1           0        0.608281   -0.904593    2.695865
     21          1           0        1.653276    1.152664   -1.386420
 ---------------------------------------------------------------------

 SCF Done:  E(RB3LYP) =  -610.806086626     A.U. after   12 cycles

 The electronic state is 1-A.
 Alpha  occ. eigenvalues --  -19.18587 -19.17775 -19.17162 -19.16933 -19.16861
 Alpha  occ. eigenvalues --  -10.29437 -10.25154 -10.24659 -10.24573 -10.24534
 Alpha  occ. eigenvalues --  -10.24051  -1.11266  -1.04526  -1.03653  -1.03223
 Alpha  occ. eigenvalues --   -1.01076  -0.79293  -0.77438  -0.68086  -0.65965
 Alpha  occ. eigenvalues --   -0.63172  -0.58533  -0.55748  -0.53210  -0.52097
 Alpha  occ. eigenvalues --   -0.50623  -0.47727  -0.46039  -0.45508  -0.44161
 Alpha  occ. eigenvalues --   -0.43466  -0.41831  -0.40004  -0.39049  -0.37300
 Alpha  occ. eigenvalues --   -0.37091  -0.35461  -0.33743  -0.32390  -0.30713
 Alpha  occ. eigenvalues --   -0.29372  -0.26834  -0.26549
 Alpha virt. eigenvalues --    0.00720   0.01317   0.02580   0.02938   0.03722
 Alpha virt. eigenvalues --    0.04526   0.05338   0.05396   0.06137   0.08021
 Alpha virt. eigenvalues --    0.08749   0.09406   0.10040   0.10412   0.11444

 Mulliken atomic charges:
              1
     1  C   -0.211776
     2  C    0.332228
     3  C    0.068188
     4  C    0.155223
     5  C    0.029826
     6  C   -0.139048
     7  O   -0.458674
     8  O   -0.438870
     9  O   -0.593853
    10  O   -0.605220
    11  O   -0.566288
    12  H    0.179001
    13  H    0.167221
    14  H    0.182826
    15  H    0.173086
    16  H    0.165176
    17  H    0.174948
    18  H    0.168395
    19  H    0.403652
    20  H    0.412438
    21  H    0.401520
 Sum of Mulliken atomic charges =   0.00000

 Dipole moment (field-independent basis, Debye):
    X=             -1.1579    Y=             -3.9029    Z=             -0.2866  Tot=              4.0811
 Quadrupole moment (field-independent basis, Debye-Ang):
   XX=            -71.4927   YY=            -67.2111   ZZ=            -62.0963
   XY=              3.8549   XZ=              2.5169   YZ=             -6.5067

 Normal termination of Gaussian 09 at Mon Apr 15 17:57:22 2019.
