 Gaussian 09, Revision C.01,
 Gaussian 09:  EM64L-G09RevC.01 23-Sep-2011

 ------------------------------------------------
 # mpw1pw91/6-31+g** nmr scrf=(pcm,solvent=water)
 ------------------------------------------------

 99/9=1/99;
 -------
 comment
 -------
 Charge =  0 Multiplicity = 1

                         Standard orientation:
 ---------------------------------------------------------------------
 Center     Atomic      Atomic             Coordinates (Angstroms)
 Number     Number       Type             X           Y           Z
 ---------------------------------------------------------------------
      1          6           0       -1.997714   -0.541439    0.043845
      2          6           0       -0.808313   -0.900403   -0.860956
      3          6           0       -0.626967    1.253808   -0.372868
      4          6           0        0.859318   -0.314779    0.980466
      5          6           0        0.643452    1.133291    0.496502
      6          6           0        0.472566   -1.332553   -0.126501
      7          8           0       -0.533116    0.376229   -1.479755
      8          8           0       -1.779170    0.851460    0.353133
      9          8           0        1.534075   -1.461028   -1.067918
     10          8           0        0.105715   -0.492251    2.177093
     11          8           0        1.799476    1.457284   -0.280164
     12          1           0       -2.029155   -1.119702    0.968804
     13          1           0       -2.947661   -0.640443   -0.491993
     14          1           0       -1.054816   -1.609736   -1.652913
     15          1           0       -0.767030    2.272867   -0.748833
     16          1           0        1.932679   -0.436891    1.177970
     17          1           0        0.551302    1.790481    1.371366
     18          1           0        0.333993   -2.322299    0.323332
     19          1           0        1.683738   -0.562100   -1.414630
     20          1           0        0.352552   -1.354283    2.549240
     21          1           0        1.674514    2.341005   -0.664369
 ---------------------------------------------------------------------

 SCF Done:  E(RmPW1PW91) =  -610.646309518     A.U. after   12 cycles

      1  C    Isotropic =   130.0322   Anisotropy =    64.4368

      2  C    Isotropic =   116.9541   Anisotropy =    45.6114

      3  C    Isotropic =    92.4370   Anisotropy =    32.9242

      4  C    Isotropic =   121.5013   Anisotropy =    49.6021

      5  C    Isotropic =   123.4594   Anisotropy =    45.1398

      6  C    Isotropic =   123.1928   Anisotropy =    50.9807

      7  O    Isotropic =   256.3095   Anisotropy =    58.8650

      8  O    Isotropic =   265.8796   Anisotropy =   107.1585

      9  O    Isotropic =   285.1020   Anisotropy =    37.5852

     10  O    Isotropic =   286.7666   Anisotropy =    61.4871

     11  O    Isotropic =   292.8315   Anisotropy =    72.8196

     12  H    Isotropic =    27.0987   Anisotropy =     5.8707

     13  H    Isotropic =    27.6774   Anisotropy =    11.0932

     14  H    Isotropic =    27.0454   Anisotropy =     8.2921

     15  H    Isotropic =    26.2169   Anisotropy =     7.5465

     16  H    Isotropic =    27.5855   Anisotropy =     4.3856

     17  H    Isotropic =    27.8417   Anisotropy =     5.3925

     18  H    Isotropic =    28.2110   Anisotropy =     5.9238

     19  H    Isotropic =    28.3531   Anisotropy =    14.4981

     20  H    Isotropic =    29.9652   Anisotropy =    18.8514

     21  H    Isotropic =    30.0510   Anisotropy =    19.5849

 The electronic state is 1-A.
 Alpha  occ. eigenvalues --  -19.27667 -19.27098 -19.26788 -19.26447 -19.25830
 Alpha  occ. eigenvalues --  -10.35914 -10.31540 -10.31523 -10.31483 -10.31267
 Alpha  occ. eigenvalues --  -10.30425  -1.14353  -1.07973  -1.06776  -1.06390
 Alpha  occ. eigenvalues --   -1.03717  -0.81912  -0.80673  -0.70494  -0.68490
 Alpha  occ. eigenvalues --   -0.65180  -0.60161  -0.57621  -0.56936  -0.53873
 Alpha  occ. eigenvalues --   -0.52230  -0.49286  -0.48062  -0.47406  -0.46841
 Alpha  occ. eigenvalues --   -0.44932  -0.43407  -0.41279  -0.40330  -0.39817
 Alpha  occ. eigenvalues --   -0.38465  -0.37267  -0.35321  -0.32705  -0.31900
 Alpha  occ. eigenvalues --   -0.31128  -0.28309  -0.27735
 Alpha virt. eigenvalues --    0.00754   0.01088   0.02445   0.02649   0.03585
 Alpha virt. eigenvalues --    0.04504   0.04956   0.05379   0.06136   0.08126
 Alpha virt. eigenvalues --    0.08525   0.09533   0.10009   0.10172   0.11545

 Mulliken atomic charges:
              1
     1  C   -0.230231
     2  C    0.344992
     3  C   -0.155668
     4  C   -0.069480
     5  C    0.191946
     6  C   -0.190294
     7  O   -0.376136
     8  O   -0.355584
     9  O   -0.518635
    10  O   -0.539386
    11  O   -0.555504
    12  H    0.188413
    13  H    0.174395
    14  H    0.189684
    15  H    0.183803
    16  H    0.187625
    17  H    0.181520
    18  H    0.177520
    19  H    0.391645
    20  H    0.389906
    21  H    0.389469
 Sum of Mulliken atomic charges =   0.00000

 Dipole moment (field-independent basis, Debye):
    X=             -0.7107    Y=             -0.2548    Z=              0.9061  Tot=              1.1795
 Quadrupole moment (field-independent basis, Debye-Ang):
   XX=            -70.3112   YY=            -53.8767   ZZ=            -67.8971
   XY=              8.5976   XZ=              4.5983   YZ=             -8.4020

 Normal termination of Gaussian 09 at Fri Apr 12 10:12:46 2019.
