 Gaussian 09, Revision C.01,
 Gaussian 09:  EM64L-G09RevC.01 23-Sep-2011

 ------------------------------------------------
 # mpw1pw91/6-31+g** nmr scrf=(pcm,solvent=water)
 ------------------------------------------------

 99/9=1/99;
 -------
 comment
 -------
 Charge =  0 Multiplicity = 1

                         Standard orientation:
 ---------------------------------------------------------------------
 Center     Atomic      Atomic             Coordinates (Angstroms)
 Number     Number       Type             X           Y           Z
 ---------------------------------------------------------------------
      1          6           0        2.122380    0.446948    0.705439
      2          6           0        1.163584    0.958836   -0.371994
      3          6           0        0.876211   -1.231237   -0.263540
      4          6           0       -1.226816    0.151485   -0.018995
      5          6           0       -0.596149   -1.232343    0.216804
      6          6           0       -0.245041    1.322786    0.175802
      7          8           0        1.082367   -0.207595   -1.219347
      8          8           0        1.744171   -0.933846    0.833499
      9          8           0       -0.813440    2.431011   -0.518794
     10          8           0       -2.432244    0.332176    0.712880
     11          8           0       -1.387014   -2.160342   -0.521445
     12          1           0        2.010779    0.946204    1.672148
     13          1           0        3.165858    0.520306    0.377111
     14          1           0        1.565584    1.779446   -0.968505
     15          1           0        1.153522   -2.190494   -0.710855
     16          1           0       -1.523908    0.174042   -1.071977
     17          1           0       -0.604412   -1.477590    1.288144
     18          1           0       -0.167877    1.554290    1.248957
     19          1           0       -0.345975    3.232113   -0.232770
     20          1           0       -2.210068    0.324991    1.658852
     21          1           0       -1.159238   -3.053390   -0.216557
 ---------------------------------------------------------------------

 SCF Done:  E(RmPW1PW91) =  -610.641950190     A.U. after   12 cycles

      1  C    Isotropic =   127.3309   Anisotropy =    47.1998

      2  C    Isotropic =   113.6820   Anisotropy =    38.9762

      3  C    Isotropic =    89.9376   Anisotropy =    24.8068

      4  C    Isotropic =   118.7862   Anisotropy =    23.5647

      5  C    Isotropic =   116.1012   Anisotropy =    24.0390

      6  C    Isotropic =   116.6724   Anisotropy =    22.7374

      7  O    Isotropic =   248.6558   Anisotropy =    48.1001

      8  O    Isotropic =   260.3582   Anisotropy =   126.9439

      9  O    Isotropic =   281.0059   Anisotropy =    42.7135

     10  O    Isotropic =   291.0985   Anisotropy =    83.1199

     11  O    Isotropic =   289.2889   Anisotropy =    56.1239

     12  H    Isotropic =    27.8016   Anisotropy =     7.3966

     13  H    Isotropic =    27.9127   Anisotropy =    10.8925

     14  H    Isotropic =    27.2266   Anisotropy =     6.5520

     15  H    Isotropic =    26.3343   Anisotropy =     6.5593

     16  H    Isotropic =    28.2112   Anisotropy =     1.7509

     17  H    Isotropic =    28.2729   Anisotropy =     2.7803

     18  H    Isotropic =    28.0962   Anisotropy =     3.4935

     19  H    Isotropic =    29.5241   Anisotropy =    18.8231

     20  H    Isotropic =    30.8552   Anisotropy =    17.2470

     21  H    Isotropic =    29.5938   Anisotropy =    19.5106

 The electronic state is 1-A.
 Alpha  occ. eigenvalues --  -19.27842 -19.26945 -19.26517 -19.26410 -19.26261
 Alpha  occ. eigenvalues --  -10.35917 -10.31886 -10.31832 -10.31440 -10.31355
 Alpha  occ. eigenvalues --  -10.30695  -1.14351  -1.08134  -1.06980  -1.05671
 Alpha  occ. eigenvalues --   -1.04122  -0.82125  -0.81080  -0.70419  -0.68766
 Alpha  occ. eigenvalues --   -0.65090  -0.60631  -0.57112  -0.55409  -0.54513
 Alpha  occ. eigenvalues --   -0.53629  -0.51210  -0.48906  -0.47388  -0.45329
 Alpha  occ. eigenvalues --   -0.44645  -0.43157  -0.42009  -0.40092  -0.38727
 Alpha  occ. eigenvalues --   -0.38030  -0.36551  -0.35446  -0.33996  -0.32164
 Alpha  occ. eigenvalues --   -0.31151  -0.28790  -0.27643
 Alpha virt. eigenvalues --    0.00907   0.01457   0.01754   0.02558   0.03164
 Alpha virt. eigenvalues --    0.04427   0.04752   0.05342   0.05726   0.07755
 Alpha virt. eigenvalues --    0.08163   0.09021   0.09464   0.10267   0.11400

 Mulliken atomic charges:
              1
     1  C   -0.254393
     2  C    0.359036
     3  C   -0.058479
     4  C   -0.066617
     5  C    0.048414
     6  C   -0.111332
     7  O   -0.350337
     8  O   -0.371576
     9  O   -0.557258
    10  O   -0.536199
    11  O   -0.546843
    12  H    0.177504
    13  H    0.176900
    14  H    0.194448
    15  H    0.183796
    16  H    0.197440
    17  H    0.186482
    18  H    0.174239
    19  H    0.389341
    20  H    0.375486
    21  H    0.389949
 Sum of Mulliken atomic charges =   0.00000

 Dipole moment (field-independent basis, Debye):
    X=              4.3138    Y=              1.2474    Z=              4.2738  Tot=              6.1992
 Quadrupole moment (field-independent basis, Debye-Ang):
   XX=            -76.7713   YY=            -50.7486   ZZ=            -65.3421
   XY=              8.0473   XZ=             -4.4944   YZ=              2.5658

 Normal termination of Gaussian 09 at Fri Apr 12 10:30:50 2019.
