 Gaussian 09, Revision C.01,
 Gaussian 09:  EM64L-G09RevC.01 23-Sep-2011

 -----------------------------------------------------------
 # B3LYP/6-31+G** test scrf=(pcm,solvent=water,smd,dovacuum)
 -----------------------------------------------------------

 99/5=1,9=1/99;
 -------
 comment
 -------
 Charge =  0 Multiplicity = 1

                         Standard orientation:
 ---------------------------------------------------------------------
 Center     Atomic      Atomic             Coordinates (Angstroms)
 Number     Number       Type             X           Y           Z
 ---------------------------------------------------------------------
      1          6           0       -2.122976    0.561616   -0.673154
      2          6           0       -1.108034    1.029928    0.374364
      3          6           0       -0.946877   -1.178532    0.278250
      4          6           0        1.206367    0.071856    0.052130
      5          6           0        0.505865   -1.255391   -0.245980
      6          6           0        0.306608    1.288358   -0.215822
      7          8           0       -1.077084   -0.136507    1.230131
      8          8           0       -1.831351   -0.842269   -0.792325
      9          8           0        0.924563    2.476409    0.279305
     10          8           0        2.411393    0.119906   -0.701368
     11          8           0        1.159981   -2.336259    0.412177
     12          1           0       -2.006452    1.041670   -1.648635
     13          1           0       -3.151089    0.699722   -0.319183
     14          1           0       -1.445631    1.881183    0.967964
     15          1           0       -1.250446   -2.122194    0.738542
     16          1           0        1.431477    0.064677    1.129717
     17          1           0        0.477768   -1.424045   -1.331253
     18          1           0        0.238282    1.449841   -1.296283
     19          1           0        1.020912    2.384457    1.242957
     20          1           0        2.844399    0.960981   -0.476423
     21          1           0        2.095039   -2.293540    0.150505
 ---------------------------------------------------------------------

 SCF Done:  E(RB3LYP) =  -610.804641659     A.U. after   12 cycles

 The electronic state is 1-A.
 Alpha  occ. eigenvalues --  -19.18408 -19.17535 -19.17227 -19.17120 -19.17054
 Alpha  occ. eigenvalues --  -10.29599 -10.25165 -10.24786 -10.24596 -10.24451
 Alpha  occ. eigenvalues --  -10.23964  -1.11154  -1.05211  -1.03865  -1.02491
 Alpha  occ. eigenvalues --   -1.01153  -0.79176  -0.78379  -0.67547  -0.66135
 Alpha  occ. eigenvalues --   -0.62680  -0.57982  -0.55507  -0.54904  -0.51129
 Alpha  occ. eigenvalues --   -0.50288  -0.49053  -0.46825  -0.45141  -0.44642
 Alpha  occ. eigenvalues --   -0.43084  -0.41440  -0.39799  -0.38714  -0.37523
 Alpha  occ. eigenvalues --   -0.36320  -0.35584  -0.34739  -0.31771  -0.30348
 Alpha  occ. eigenvalues --   -0.29495  -0.27375  -0.26586
 Alpha virt. eigenvalues --    0.00966   0.01419   0.02232   0.02893   0.03900
 Alpha virt. eigenvalues --    0.04397   0.04742   0.05421   0.06116   0.07872
 Alpha virt. eigenvalues --    0.08396   0.09447   0.09936   0.10414   0.11311

 Mulliken atomic charges:
              1
     1  C   -0.209562
     2  C    0.371016
     3  C    0.074436
     4  C    0.078568
     5  C    0.100513
     6  C   -0.106566
     7  O   -0.438346
     8  O   -0.448765
     9  O   -0.620544
    10  O   -0.629951
    11  O   -0.615643
    12  H    0.172199
    13  H    0.165923
    14  H    0.183867
    15  H    0.174546
    16  H    0.172724
    17  H    0.173886
    18  H    0.177427
    19  H    0.404459
    20  H    0.412356
    21  H    0.407454
 Sum of Mulliken atomic charges =   0.00000

 Dipole moment (field-independent basis, Debye):
    X=              0.4504    Y=              3.5199    Z=              0.6949  Tot=              3.6160
 Quadrupole moment (field-independent basis, Debye-Ang):
   XX=            -61.6829   YY=            -71.2553   ZZ=            -66.8466
   XY=             -4.0015   XZ=              3.6217   YZ=              3.7084

 Normal termination of Gaussian 09 at Mon Apr 15 18:05:08 2019.
