 Gaussian 09, Revision C.01,
 Gaussian 09:  EM64L-G09RevC.01 23-Sep-2011

 -----------------------------------------------------------
 # B3LYP/6-31+G** test scrf=(pcm,solvent=water,smd,dovacuum)
 -----------------------------------------------------------

 99/5=1,9=1/99;
 -------
 comment
 -------
 Charge =  0 Multiplicity = 1

                         Standard orientation:
 ---------------------------------------------------------------------
 Center     Atomic      Atomic             Coordinates (Angstroms)
 Number     Number       Type             X           Y           Z
 ---------------------------------------------------------------------
      1          6           0        2.142015    0.515645    0.661784
      2          6           0        1.134638    0.998593   -0.383870
      3          6           0        0.918959   -1.204861   -0.267276
      4          6           0       -1.195860    0.107829   -0.067523
      5          6           0       -0.538577   -1.240560    0.251061
      6          6           0       -0.265440    1.296976    0.209571
      7          8           0        1.073880   -0.174559   -1.227908
      8          8           0        1.803964   -0.876212    0.805887
      9          8           0       -0.777075    2.478016   -0.398831
     10          8           0       -2.471713    0.265809    0.553333
     11          8           0       -1.224430   -2.303457   -0.400604
     12          1           0        2.050070    1.012794    1.631095
     13          1           0        3.170699    0.614257    0.296461
     14          1           0        1.480286    1.837539   -0.988801
     15          1           0        1.204408   -2.159024   -0.717667
     16          1           0       -1.404383    0.111330   -1.140823
     17          1           0       -0.511882   -1.408234    1.338269
     18          1           0       -0.181138    1.447418    1.298314
     19          1           0       -1.710217    2.536184   -0.128641
     20          1           0       -2.343079    0.245864    1.517641
     21          1           0       -2.166184   -2.196639   -0.183353
 ---------------------------------------------------------------------

 SCF Done:  E(RB3LYP) =  -610.804751840     A.U. after   12 cycles

 The electronic state is 1-A.
 Alpha  occ. eigenvalues --  -19.18419 -19.17551 -19.17407 -19.17124 -19.17007
 Alpha  occ. eigenvalues --  -10.29606 -10.25245 -10.24806 -10.24578 -10.24480
 Alpha  occ. eigenvalues --  -10.23958  -1.11186  -1.05261  -1.03899  -1.02507
 Alpha  occ. eigenvalues --   -1.01162  -0.79344  -0.78286  -0.67464  -0.66533
 Alpha  occ. eigenvalues --   -0.62143  -0.58546  -0.55986  -0.52560  -0.52197
 Alpha  occ. eigenvalues --   -0.50661  -0.49126  -0.48201  -0.44490  -0.43518
 Alpha  occ. eigenvalues --   -0.42597  -0.41873  -0.41054  -0.39340  -0.36624
 Alpha  occ. eigenvalues --   -0.35886  -0.35444  -0.35128  -0.31749  -0.30610
 Alpha  occ. eigenvalues --   -0.28934  -0.28035  -0.26458
 Alpha virt. eigenvalues --    0.00871   0.01464   0.02420   0.02804   0.03901
 Alpha virt. eigenvalues --    0.04519   0.04715   0.05656   0.05873   0.07823
 Alpha virt. eigenvalues --    0.08517   0.09336   0.10053   0.10283   0.11608

 Mulliken atomic charges:
              1
     1  C   -0.205322
     2  C    0.345326
     3  C    0.078019
     4  C   -0.054779
     5  C    0.123053
     6  C    0.020455
     7  O   -0.439344
     8  O   -0.451118
     9  O   -0.618960
    10  O   -0.627532
    11  O   -0.610552
    12  H    0.172789
    13  H    0.165831
    14  H    0.183650
    15  H    0.174563
    16  H    0.183432
    17  H    0.172950
    18  H    0.169086
    19  H    0.404179
    20  H    0.407184
    21  H    0.407090
 Sum of Mulliken atomic charges =   0.00000

 Dipole moment (field-independent basis, Debye):
    X=             -0.9823    Y=              1.9719    Z=              4.5363  Tot=              5.0430
 Quadrupole moment (field-independent basis, Debye-Ang):
   XX=            -62.4955   YY=            -72.7873   ZZ=            -65.2785
   XY=              4.3629   XZ=             -4.7891   YZ=              2.8295

 Normal termination of Gaussian 09 at Mon Apr 15 17:51:47 2019.
