 Gaussian 09, Revision C.01,
 Gaussian 09:  EM64L-G09RevC.01 23-Sep-2011

 ------------------------------------------------
 # mpw1pw91/6-31+g** nmr scrf=(pcm,solvent=water)
 ------------------------------------------------

 99/9=1/99;
 -------
 comment
 -------
 Charge =  0 Multiplicity = 1

                         Standard orientation:
 ---------------------------------------------------------------------
 Center     Atomic      Atomic             Coordinates (Angstroms)
 Number     Number       Type             X           Y           Z
 ---------------------------------------------------------------------
      1          6           0        2.023719    0.513243    0.010755
      2          6           0        0.752113    1.178624   -0.514583
      3          6           0        0.511982   -1.000077   -0.883327
      4          6           0       -0.722626   -0.128681    1.124924
      5          6           0       -0.708833   -1.223542    0.036848
      6          6           0       -0.411893    1.257565    0.491856
      7          8           0        0.385675    0.234410   -1.548879
      8          8           0        1.699203   -0.899515   -0.068764
      9          8           0       -1.569226    1.763429   -0.167820
     10          8           0        0.156643   -0.459408    2.195953
     11          8           0       -1.925309   -1.088710   -0.698129
     12          1           0        2.270375    0.764086    1.044440
     13          1           0        2.880282    0.725438   -0.636371
     14          1           0        0.919495    2.145893   -0.990617
     15          1           0        0.640116   -1.790376   -1.629148
     16          1           0       -1.729589   -0.071526    1.549864
     17          1           0       -0.641253   -2.209649    0.516326
     18          1           0       -0.166541    1.962441    1.292701
     19          1           0       -1.852534    1.056560   -0.778273
     20          1           0        0.940816   -0.871395    1.790066
     21          1           0       -1.903817   -1.695905   -1.456703
 ---------------------------------------------------------------------

 SCF Done:  E(RmPW1PW91) =  -610.647844589     A.U. after   12 cycles

      1  C    Isotropic =   129.4798   Anisotropy =    61.0151

      2  C    Isotropic =   115.4450   Anisotropy =    44.3580

      3  C    Isotropic =    91.8624   Anisotropy =    37.0448

      4  C    Isotropic =   122.4146   Anisotropy =    51.2633

      5  C    Isotropic =   124.0080   Anisotropy =    49.4127

      6  C    Isotropic =   123.2561   Anisotropy =    50.2784

      7  O    Isotropic =   255.7878   Anisotropy =    68.9410

      8  O    Isotropic =   263.0711   Anisotropy =   105.9813

      9  O    Isotropic =   285.4856   Anisotropy =    36.9977

     10  O    Isotropic =   288.1901   Anisotropy =    38.0082

     11  O    Isotropic =   292.8434   Anisotropy =    65.3307

     12  H    Isotropic =    27.3313   Anisotropy =     6.9429

     13  H    Isotropic =    27.6718   Anisotropy =    11.4154

     14  H    Isotropic =    26.9838   Anisotropy =     8.1811

     15  H    Isotropic =    26.0475   Anisotropy =     7.6527

     16  H    Isotropic =    27.7635   Anisotropy =     4.9780

     17  H    Isotropic =    27.7684   Anisotropy =     5.5456

     18  H    Isotropic =    27.9811   Anisotropy =     6.0566

     19  H    Isotropic =    27.9626   Anisotropy =    15.8842

     20  H    Isotropic =    28.1834   Anisotropy =    16.3600

     21  H    Isotropic =    29.8802   Anisotropy =    19.7145

 The electronic state is 1-A.
 Alpha  occ. eigenvalues --  -19.28206 -19.28133 -19.27577 -19.25975 -19.25698
 Alpha  occ. eigenvalues --  -10.36564 -10.31921 -10.31888 -10.31506 -10.31297
 Alpha  occ. eigenvalues --  -10.31238  -1.14992  -1.08194  -1.06758  -1.06411
 Alpha  occ. eigenvalues --   -1.04206  -0.82540  -0.80681  -0.70665  -0.68947
 Alpha  occ. eigenvalues --   -0.65877  -0.61305  -0.58579  -0.55678  -0.54079
 Alpha  occ. eigenvalues --   -0.51826  -0.49859  -0.49005  -0.48054  -0.46378
 Alpha  occ. eigenvalues --   -0.46200  -0.44018  -0.41779  -0.41003  -0.39047
 Alpha  occ. eigenvalues --   -0.38282  -0.37647  -0.36142  -0.33618  -0.32807
 Alpha  occ. eigenvalues --   -0.30815  -0.28690  -0.28081
 Alpha virt. eigenvalues --    0.00695   0.01245   0.02557   0.02821   0.03725
 Alpha virt. eigenvalues --    0.04466   0.05018   0.05267   0.05872   0.08189
 Alpha virt. eigenvalues --    0.08564   0.09658   0.09910   0.10281   0.11418

 Mulliken atomic charges:
              1
     1  C   -0.198504
     2  C    0.303823
     3  C   -0.105776
     4  C   -0.122807
     5  C    0.161496
     6  C   -0.154810
     7  O   -0.373129
     8  O   -0.437073
     9  O   -0.523355
    10  O   -0.512083
    11  O   -0.559266
    12  H    0.192053
    13  H    0.186309
    14  H    0.193345
    15  H    0.192392
    16  H    0.192068
    17  H    0.192733
    18  H    0.185429
    19  H    0.394262
    20  H    0.398470
    21  H    0.394423
 Sum of Mulliken atomic charges =   0.00000

 Dipole moment (field-independent basis, Debye):
    X=              2.5104    Y=             -2.1106    Z=             -2.0859  Tot=              3.8868
 Quadrupole moment (field-independent basis, Debye-Ang):
   XX=            -66.2265   YY=            -61.1244   ZZ=            -69.8734
   XY=              9.6920   XZ=              2.9601   YZ=              5.8344

 Normal termination of Gaussian 09 at Fri Apr 12 10:26:31 2019.
