 Gaussian 09, Revision C.01,
 Gaussian 09:  EM64L-G09RevC.01 23-Sep-2011

 ------------------------------------------------
 # mpw1pw91/6-31+g** nmr scrf=(pcm,solvent=water)
 ------------------------------------------------

 99/9=1/99;
 -------
 comment
 -------
 Charge =  0 Multiplicity = 1

                         Standard orientation:
 ---------------------------------------------------------------------
 Center     Atomic      Atomic             Coordinates (Angstroms)
 Number     Number       Type             X           Y           Z
 ---------------------------------------------------------------------
      1          6           0       -0.580120    1.772660    0.521214
      2          6           0       -0.486880    1.078329   -0.842843
      3          6           0        1.399163    0.636298    0.252279
      4          6           0       -0.316144   -1.249398    0.200115
      5          6           0        1.178969   -0.881707    0.376915
      6          6           0       -1.011351   -0.372202   -0.872459
      7          8           0        0.945266    1.029822   -1.039621
      8          8           0        0.637422    1.378596    1.186243
      9          8           0       -2.418773   -0.427744   -0.727714
     10          8           0       -1.059537   -1.060418    1.413056
     11          8           0        1.984362   -1.537201   -0.599719
     12          1           0       -1.442887    1.452415    1.108664
     13          1           0       -0.591167    2.862851    0.416097
     14          1           0       -0.926050    1.661152   -1.654452
     15          1           0        2.458506    0.893163    0.341169
     16          1           0       -0.369491   -2.300426   -0.106414
     17          1           0        1.518360   -1.236934    1.354976
     18          1           0       -2.562724   -0.610501    0.221222
     19          1           0       -0.993369   -1.870238    1.942109
     20          1           0        1.857123   -1.046860   -1.431219
     21          1           0       -0.760042   -0.772930   -1.861447
 ---------------------------------------------------------------------

 SCF Done:  E(RmPW1PW91) =  -610.649007856     A.U. after   12 cycles

      1  C    Isotropic =   131.3012   Anisotropy =    65.9819

      2  C    Isotropic =   118.4751   Anisotropy =    59.3267

      3  C    Isotropic =    92.7481   Anisotropy =    35.5014

      4  C    Isotropic =   122.6323   Anisotropy =    46.1934

      5  C    Isotropic =   121.9529   Anisotropy =    37.2939

      6  C    Isotropic =   130.5648   Anisotropy =    52.1231

      7  O    Isotropic =   240.3421   Anisotropy =    49.0441

      8  O    Isotropic =   267.4264   Anisotropy =   106.8176

      9  O    Isotropic =   309.2129   Anisotropy =    29.3814

     10  O    Isotropic =   302.9803   Anisotropy =    40.4090

     11  O    Isotropic =   289.9266   Anisotropy =    27.5992

     12  H    Isotropic =    27.3112   Anisotropy =     5.0526

     13  H    Isotropic =    27.7441   Anisotropy =    11.3486

     14  H    Isotropic =    27.2168   Anisotropy =     7.5033

     15  H    Isotropic =    26.1640   Anisotropy =     7.7653

     16  H    Isotropic =    27.4855   Anisotropy =     6.7321

     17  H    Isotropic =    27.9038   Anisotropy =     5.4251

     18  H    Isotropic =    27.7544   Anisotropy =    16.6446

     19  H    Isotropic =    29.4757   Anisotropy =    21.4842

     20  H    Isotropic =    29.6155   Anisotropy =    13.5464

     21  H    Isotropic =    27.6034   Anisotropy =     5.5060

 The electronic state is 1-A.
 Alpha  occ. eigenvalues --  -19.28146 -19.27354 -19.26910 -19.26586 -19.25977
 Alpha  occ. eigenvalues --  -10.35979 -10.31913 -10.31582 -10.31455 -10.31359
 Alpha  occ. eigenvalues --  -10.30450  -1.14437  -1.08897  -1.07114  -1.05684
 Alpha  occ. eigenvalues --   -1.04101  -0.82017  -0.80660  -0.70827  -0.68625
 Alpha  occ. eigenvalues --   -0.64881  -0.61375  -0.57942  -0.55716  -0.54252
 Alpha  occ. eigenvalues --   -0.53090  -0.49934  -0.48344  -0.47205  -0.46118
 Alpha  occ. eigenvalues --   -0.45259  -0.43549  -0.42725  -0.39708  -0.39160
 Alpha  occ. eigenvalues --   -0.37963  -0.37665  -0.35033  -0.34163  -0.33201
 Alpha  occ. eigenvalues --   -0.30692  -0.28954  -0.27383
 Alpha virt. eigenvalues --    0.00336   0.01413   0.02336   0.02529   0.04154
 Alpha virt. eigenvalues --    0.04462   0.05078   0.05305   0.05733   0.08461
 Alpha virt. eigenvalues --    0.09005   0.09085   0.09932   0.10745   0.11808

 Mulliken atomic charges:
              1
     1  C   -0.183452
     2  C    0.270927
     3  C   -0.110918
     4  C    0.069409
     5  C    0.076560
     6  C   -0.234809
     7  O   -0.372703
     8  O   -0.337331
     9  O   -0.544713
    10  O   -0.636973
    11  O   -0.494189
    12  H    0.185275
    13  H    0.175799
    14  H    0.196245
    15  H    0.189034
    16  H    0.192644
    17  H    0.188050
    18  H    0.391445
    19  H    0.414248
    20  H    0.377627
    21  H    0.187824
 Sum of Mulliken atomic charges =   0.00000

 Dipole moment (field-independent basis, Debye):
    X=             -0.7690    Y=             -1.1971    Z=              0.7886  Tot=              1.6267
 Quadrupole moment (field-independent basis, Debye-Ang):
   XX=            -72.2464   YY=            -61.5070   ZZ=            -63.4786
   XY=              1.1669   XZ=             -3.5881   YZ=             -6.4417

 Normal termination of Gaussian 09 at Fri Apr 12 10:34:52 2019.
