 Gaussian 09, Revision C.01,
 Gaussian 09:  EM64L-G09RevC.01 23-Sep-2011

 -----------------------------------------------------------
 # B3LYP/6-31+G** test scrf=(pcm,solvent=water,smd,dovacuum)
 -----------------------------------------------------------

 99/5=1,9=1/99;
 -------
 comment
 -------
 Charge =  0 Multiplicity = 1

                         Standard orientation:
 ---------------------------------------------------------------------
 Center     Atomic      Atomic             Coordinates (Angstroms)
 Number     Number       Type             X           Y           Z
 ---------------------------------------------------------------------
      1          6           0       -2.137955    0.228910   -0.473072
      2          6           0       -1.321402    0.542519    0.785580
      3          6           0       -0.566833   -1.388067   -0.001981
      4          6           0        1.182488    0.358120    0.441667
      5          6           0        0.843547   -0.889599   -0.390253
      6          6           0       -0.001752    1.340778    0.514741
      7          8           0       -0.979640   -0.793023    1.218336
      8          8           0       -1.520708   -0.970569   -0.976772
      9          8           0       -0.006288    2.053705   -0.727213
     10          8           0        2.355997    0.999671   -0.036831
     11          8           0        1.781218   -1.930377   -0.131081
     12          1           0       -2.088216    1.013381   -1.229111
     13          1           0       -3.182712    0.021934   -0.215251
     14          1           0       -1.914152    1.002498    1.576905
     15          1           0       -0.591790   -2.475552    0.106599
     16          1           0        1.403827    0.010376    1.454221
     17          1           0        0.839223   -0.634557   -1.458935
     18          1           0       -0.383054    2.934942   -0.580722
     19          1           0        2.045004    1.593635   -0.745941
     20          1           0        2.660874   -1.541324   -0.274675
     21          1           0        0.177810    2.043455    1.335308
 ---------------------------------------------------------------------

 SCF Done:  E(RB3LYP) =  -610.801396985     A.U. after   12 cycles

 The electronic state is 1-A.
 Alpha  occ. eigenvalues --  -19.18317 -19.17353 -19.17349 -19.16961 -19.16818
 Alpha  occ. eigenvalues --  -10.29409 -10.25058 -10.25031 -10.24287 -10.24108
 Alpha  occ. eigenvalues --  -10.23623  -1.10997  -1.05432  -1.03752  -1.02130
 Alpha  occ. eigenvalues --   -1.01087  -0.78845  -0.77965  -0.68057  -0.65667
 Alpha  occ. eigenvalues --   -0.61877  -0.58505  -0.55896  -0.53336  -0.50701
 Alpha  occ. eigenvalues --   -0.50144  -0.49591  -0.48042  -0.44392  -0.43984
 Alpha  occ. eigenvalues --   -0.42524  -0.41508  -0.40511  -0.39023  -0.37116
 Alpha  occ. eigenvalues --   -0.35812  -0.34900  -0.34012  -0.32651  -0.30864
 Alpha  occ. eigenvalues --   -0.28668  -0.27486  -0.26273
 Alpha virt. eigenvalues --    0.00267   0.01555   0.02198   0.02738   0.04202
 Alpha virt. eigenvalues --    0.04908   0.04970   0.05533   0.05817   0.08290
 Alpha virt. eigenvalues --    0.08459   0.09163   0.10008   0.10605   0.11482

 Mulliken atomic charges:
              1
     1  C   -0.137050
     2  C    0.266175
     3  C    0.107768
     4  C   -0.097586
     5  C    0.090122
     6  C    0.051513
     7  O   -0.410279
     8  O   -0.449267
     9  O   -0.670110
    10  O   -0.611815
    11  O   -0.603752
    12  H    0.176337
    13  H    0.162407
    14  H    0.180954
    15  H    0.173359
    16  H    0.184796
    17  H    0.173140
    18  H    0.431168
    19  H    0.405725
    20  H    0.404741
    21  H    0.171653
 Sum of Mulliken atomic charges =   0.00000

 Dipole moment (field-independent basis, Debye):
    X=             -2.2734    Y=              6.2133    Z=              0.6451  Tot=              6.6475
 Quadrupole moment (field-independent basis, Debye-Ang):
   XX=            -66.1046   YY=            -60.3068   ZZ=            -68.1818
   XY=             -6.7604   XZ=             -4.1210   YZ=              1.3667

 Normal termination of Gaussian 09 at Mon Apr 15 18:03:11 2019.
