 Gaussian 09, Revision C.01,
 Gaussian 09:  EM64L-G09RevC.01 23-Sep-2011

 -----------------------------------------------------------
 # B3LYP/6-31+G** test scrf=(pcm,solvent=water,smd,dovacuum)
 -----------------------------------------------------------

 99/5=1,9=1/99;
 -------
 comment
 -------
 Charge =  0 Multiplicity = 1

                         Standard orientation:
 ---------------------------------------------------------------------
 Center     Atomic      Atomic             Coordinates (Angstroms)
 Number     Number       Type             X           Y           Z
 ---------------------------------------------------------------------
      1          6           0       -2.143052    0.228522   -0.486790
      2          6           0       -1.335517    0.555017    0.775068
      3          6           0       -0.570303   -1.378568    0.005073
      4          6           0        1.165831    0.379527    0.453894
      5          6           0        0.845193   -0.868621   -0.377692
      6          6           0       -0.023066    1.357476    0.510445
      7          8           0       -0.992671   -0.777707    1.219196
      8          8           0       -1.519458   -0.974121   -0.977923
      9          8           0       -0.119569    2.084469   -0.708179
     10          8           0        2.273848    1.100510   -0.078010
     11          8           0        1.873761   -1.846563   -0.236242
     12          1           0       -2.091645    1.006589   -1.247927
     13          1           0       -3.187418    0.017695   -0.230841
     14          1           0       -1.936795    1.016000    1.558680
     15          1           0       -0.589128   -2.466368    0.118825
     16          1           0        1.384343    0.051715    1.479861
     17          1           0        0.839982   -0.612800   -1.440138
     18          1           0        0.804846    2.250772   -0.971834
     19          1           0        2.937129    0.440901   -0.343831
     20          1           0        1.931500   -2.092226    0.703151
     21          1           0        0.145384    2.054904    1.343335
 ---------------------------------------------------------------------

 SCF Done:  E(RB3LYP) =  -610.800373126     A.U. after   12 cycles

 The electronic state is 1-A.
 Alpha  occ. eigenvalues --  -19.18388 -19.17446 -19.17406 -19.17390 -19.16592
 Alpha  occ. eigenvalues --  -10.29424 -10.25218 -10.24843 -10.24618 -10.24441
 Alpha  occ. eigenvalues --  -10.23627  -1.11049  -1.05683  -1.03818  -1.02252
 Alpha  occ. eigenvalues --   -1.01134  -0.78898  -0.77993  -0.68175  -0.65893
 Alpha  occ. eigenvalues --   -0.62305  -0.58024  -0.55699  -0.53662  -0.52235
 Alpha  occ. eigenvalues --   -0.50165  -0.48252  -0.46612  -0.46194  -0.45173
 Alpha  occ. eigenvalues --   -0.41802  -0.41380  -0.40713  -0.38902  -0.36484
 Alpha  occ. eigenvalues --   -0.36436  -0.35249  -0.34718  -0.31858  -0.30370
 Alpha  occ. eigenvalues --   -0.29196  -0.28188  -0.25929
 Alpha virt. eigenvalues --    0.00628   0.01447   0.02107   0.02673   0.04204
 Alpha virt. eigenvalues --    0.04895   0.05001   0.05489   0.05733   0.08314
 Alpha virt. eigenvalues --    0.08382   0.09473   0.09868   0.10589   0.11372

 Mulliken atomic charges:
              1
     1  C   -0.132769
     2  C    0.239558
     3  C    0.153812
     4  C    0.046961
     5  C   -0.071005
     6  C    0.044977
     7  O   -0.412686
     8  O   -0.452083
     9  O   -0.621220
    10  O   -0.637229
    11  O   -0.604325
    12  H    0.178088
    13  H    0.162843
    14  H    0.182369
    15  H    0.175647
    16  H    0.173651
    17  H    0.188996
    18  H    0.411894
    19  H    0.412760
    20  H    0.404778
    21  H    0.154984
 Sum of Mulliken atomic charges =   0.00000

 Dipole moment (field-independent basis, Debye):
    X=              1.0733    Y=              0.1602    Z=              3.0625  Tot=              3.2491
 Quadrupole moment (field-independent basis, Debye-Ang):
   XX=            -61.8522   YY=            -69.8473   ZZ=            -66.6107
   XY=             -4.1311   XZ=             -0.2241   YZ=             -2.0263

 Normal termination of Gaussian 09 at Mon Apr 15 18:05:58 2019.
