 Gaussian 09, Revision C.01,
 Gaussian 09:  EM64L-G09RevC.01 23-Sep-2011

 -----------------------------------------------------------
 # B3LYP/6-31+G** test scrf=(pcm,solvent=water,smd,dovacuum)
 -----------------------------------------------------------

 99/5=1,9=1/99;
 -------
 comment
 -------
 Charge =  0 Multiplicity = 1

                         Standard orientation:
 ---------------------------------------------------------------------
 Center     Atomic      Atomic             Coordinates (Angstroms)
 Number     Number       Type             X           Y           Z
 ---------------------------------------------------------------------
      1          6           0       -1.008443    1.617020    0.450375
      2          6           0       -0.737838    0.930217   -0.885100
      3          6           0        1.193484    0.927275    0.217791
      4          6           0       -0.007955   -1.273189    0.220032
      5          6           0        1.373628   -0.590439    0.353083
      6          6           0       -0.891989   -0.607486   -0.869845
      7          8           0        0.661823    1.240393   -1.049391
      8          8           0        0.211799    1.356070    1.188053
      9          8           0       -2.245481   -0.991907   -0.693464
     10          8           0       -0.705484   -1.271312    1.475293
     11          8           0        2.272788   -0.985574   -0.673749
     12          1           0       -1.857857    1.209969    1.002648
     13          1           0       -1.137834    2.696711    0.324525
     14          1           0       -1.289171    1.368445   -1.718764
     15          1           0        2.128165    1.476651    0.352936
     16          1           0        0.129863   -2.328787   -0.035243
     17          1           0        1.777799   -0.820614    1.348688
     18          1           0       -2.334041   -1.147174    0.267299
     19          1           0       -0.519305   -0.406031    1.886861
     20          1           0        2.575687   -1.884805   -0.469850
     21          1           0       -0.562196   -0.966108   -1.851052
 ---------------------------------------------------------------------

 SCF Done:  E(RB3LYP) =  -610.807053965     A.U. after   12 cycles

 The electronic state is 1-A.
 Alpha  occ. eigenvalues --  -19.18578 -19.18258 -19.17378 -19.17226 -19.16744
 Alpha  occ. eigenvalues --  -10.29689 -10.25019 -10.24844 -10.24830 -10.24506
 Alpha  occ. eigenvalues --  -10.24082  -1.11433  -1.05302  -1.04103  -1.02601
 Alpha  occ. eigenvalues --   -1.01181  -0.79354  -0.77768  -0.68157  -0.66162
 Alpha  occ. eigenvalues --   -0.62335  -0.59422  -0.55850  -0.53570  -0.51273
 Alpha  occ. eigenvalues --   -0.49987  -0.48275  -0.47181  -0.46455  -0.44511
 Alpha  occ. eigenvalues --   -0.43135  -0.41608  -0.40667  -0.38550  -0.38128
 Alpha  occ. eigenvalues --   -0.36384  -0.35666  -0.34249  -0.32028  -0.31514
 Alpha  occ. eigenvalues --   -0.28770  -0.27764  -0.26630
 Alpha virt. eigenvalues --    0.00721   0.01205   0.02601   0.02837   0.03871
 Alpha virt. eigenvalues --    0.04804   0.05404   0.05536   0.05842   0.08470
 Alpha virt. eigenvalues --    0.09283   0.09604   0.10152   0.10748   0.11885

 Mulliken atomic charges:
              1
     1  C   -0.118360
     2  C    0.262368
     3  C    0.096290
     4  C    0.087772
     5  C    0.018580
     6  C   -0.097771
     7  O   -0.412079
     8  O   -0.485056
     9  O   -0.595345
    10  O   -0.636247
    11  O   -0.612762
    12  H    0.185071
    13  H    0.169533
    14  H    0.181629
    15  H    0.173358
    16  H    0.168944
    17  H    0.183091
    18  H    0.407044
    19  H    0.428937
    20  H    0.421749
    21  H    0.173253
 Sum of Mulliken atomic charges =   0.00000

 Dipole moment (field-independent basis, Debye):
    X=              0.9154    Y=             -0.3687    Z=              2.0690  Tot=              2.2923
 Quadrupole moment (field-independent basis, Debye-Ang):
   XX=            -66.9500   YY=            -61.8585   ZZ=            -70.3689
   XY=            -11.7632   XZ=              2.0531   YZ=              0.8340

 Normal termination of Gaussian 09 at Mon Apr 15 18:00:41 2019.
