 Gaussian 09, Revision C.01,
 Gaussian 09:  EM64L-G09RevC.01 23-Sep-2011

 -----------------------------------------------------------
 # B3LYP/6-31+G** test scrf=(pcm,solvent=water,smd,dovacuum)
 -----------------------------------------------------------

 99/5=1,9=1/99;
 -------
 comment
 -------
 Charge =  0 Multiplicity = 1

                         Standard orientation:
 ---------------------------------------------------------------------
 Center     Atomic      Atomic             Coordinates (Angstroms)
 Number     Number       Type             X           Y           Z
 ---------------------------------------------------------------------
      1          6           0       -0.672464    1.712238    0.593912
      2          6           0       -0.665286    1.027733   -0.780203
      3          6           0        1.352992    0.758120    0.079995
      4          6           0       -0.216429   -1.252718    0.274221
      5          6           0        1.257737   -0.767221    0.293933
      6          6           0       -1.034569   -0.469045   -0.770886
      7          8           0        0.727988    1.117496   -1.136774
      8          8           0        0.653481    1.454994    1.103982
      9          8           0       -2.417972   -0.688150   -0.533093
     10          8           0       -0.834751   -1.095654    1.546938
     11          8           0        1.938913   -1.466120   -0.743054
     12          1           0       -1.418730    1.294260    1.270548
     13          1           0       -0.811058    2.794982    0.501146
     14          1           0       -1.246601    1.565107   -1.533735
     15          1           0        2.393251    1.099311    0.049417
     16          1           0       -0.207553   -2.314209   -0.011918
     17          1           0        1.687049   -1.010548    1.278162
     18          1           0       -2.896088   -0.387011   -1.322561
     19          1           0       -0.310912   -1.603314    2.187084
     20          1           0        2.876875   -1.216256   -0.712487
     21          1           0       -0.739400   -0.857494   -1.755462
 ---------------------------------------------------------------------

 SCF Done:  E(RB3LYP) =  -610.804146097     A.U. after   12 cycles

 The electronic state is 1-A.
 Alpha  occ. eigenvalues --  -19.18198 -19.17426 -19.17169 -19.17150 -19.16637
 Alpha  occ. eigenvalues --  -10.29223 -10.24837 -10.24691 -10.24689 -10.24664
 Alpha  occ. eigenvalues --  -10.23578  -1.11055  -1.04873  -1.03834  -1.02728
 Alpha  occ. eigenvalues --   -1.01031  -0.79022  -0.77830  -0.67944  -0.65576
 Alpha  occ. eigenvalues --   -0.62701  -0.57859  -0.54738  -0.53963  -0.52511
 Alpha  occ. eigenvalues --   -0.50620  -0.47880  -0.46730  -0.45496  -0.44145
 Alpha  occ. eigenvalues --   -0.43288  -0.41242  -0.40199  -0.38696  -0.37087
 Alpha  occ. eigenvalues --   -0.36572  -0.35759  -0.32989  -0.31860  -0.30330
 Alpha  occ. eigenvalues --   -0.29384  -0.27458  -0.25859
 Alpha virt. eigenvalues --    0.00461   0.01360   0.02347   0.02552   0.03962
 Alpha virt. eigenvalues --    0.04287   0.05248   0.05726   0.06034   0.08528
 Alpha virt. eigenvalues --    0.08912   0.09222   0.09913   0.10952   0.11973

 Mulliken atomic charges:
              1
     1  C   -0.113351
     2  C    0.282310
     3  C   -0.018016
     4  C    0.099080
     5  C    0.107316
     6  C   -0.083307
     7  O   -0.406417
     8  O   -0.419532
     9  O   -0.627813
    10  O   -0.656259
    11  O   -0.611436
    12  H    0.176208
    13  H    0.161114
    14  H    0.177928
    15  H    0.169846
    16  H    0.157824
    17  H    0.168059
    18  H    0.422740
    19  H    0.422636
    20  H    0.414978
    21  H    0.176090
 Sum of Mulliken atomic charges =   0.00000

 Dipole moment (field-independent basis, Debye):
    X=              1.6362    Y=             -0.0930    Z=             -1.0939  Tot=              1.9704
 Quadrupole moment (field-independent basis, Debye-Ang):
   XX=            -56.3527   YY=            -66.4798   ZZ=            -64.5279
   XY=             -8.2186   XZ=             10.8873   YZ=             -5.4900

 Normal termination of Gaussian 09 at Mon Apr 15 18:23:21 2019.
