 Gaussian 09, Revision C.01,
 Gaussian 09:  EM64L-G09RevC.01 23-Sep-2011

 ------------------------------------------------
 # mpw1pw91/6-31+g** nmr scrf=(pcm,solvent=water)
 ------------------------------------------------

 99/9=1/99;
 -------
 comment
 -------
 Charge =  0 Multiplicity = 1

                         Standard orientation:
 ---------------------------------------------------------------------
 Center     Atomic      Atomic             Coordinates (Angstroms)
 Number     Number       Type             X           Y           Z
 ---------------------------------------------------------------------
      1          6           0       -2.137858    0.228732   -0.473145
      2          6           0       -1.321461    0.542314    0.785637
      3          6           0       -0.566628   -1.388173   -0.002101
      4          6           0        1.182398    0.358183    0.441557
      5          6           0        0.843698   -0.889653   -0.390297
      6          6           0       -0.001963    1.340762    0.514736
      7          8           0       -0.979610   -0.793176    1.218282
      8          8           0       -1.520538   -0.970668   -0.976821
      9          8           0       -0.006557    2.053908   -0.726987
     10          8           0        2.355727    1.000000   -0.036986
     11          8           0        1.781438   -1.930269   -0.130853
     12          1           0       -2.087954    1.013359   -1.229011
     13          1           0       -3.182707    0.021810   -0.215648
     14          1           0       -1.914339    1.002108    1.576979
     15          1           0       -0.591666   -2.475645    0.106610
     16          1           0        1.404052    0.010351    1.454027
     17          1           0        0.839339   -0.634892   -1.459051
     18          1           0       -0.382858    2.935303   -0.580306
     19          1           0        2.044470    1.594466   -0.745526
     20          1           0        2.661076   -1.541380   -0.274979
     21          1           0        0.177789    2.043169    1.335486
 ---------------------------------------------------------------------

 SCF Done:  E(RmPW1PW91) =  -610.643896623     A.U. after   12 cycles

      1  C    Isotropic =   133.4865   Anisotropy =    65.3662

      2  C    Isotropic =   118.3829   Anisotropy =    53.9943

      3  C    Isotropic =    90.7584   Anisotropy =    24.6531

      4  C    Isotropic =   124.3202   Anisotropy =    35.2204

      5  C    Isotropic =   117.7896   Anisotropy =    26.5138

      6  C    Isotropic =   126.6026   Anisotropy =    38.8968

      7  O    Isotropic =   242.8761   Anisotropy =    58.6624

      8  O    Isotropic =   255.8358   Anisotropy =   125.4243

      9  O    Isotropic =   305.5564   Anisotropy =    23.9330

     10  O    Isotropic =   314.8416   Anisotropy =    34.9857

     11  O    Isotropic =   297.6585   Anisotropy =    57.1184

     12  H    Isotropic =    27.0174   Anisotropy =     6.0239

     13  H    Isotropic =    28.0236   Anisotropy =    11.7231

     14  H    Isotropic =    26.8050   Anisotropy =     8.0230

     15  H    Isotropic =    26.2339   Anisotropy =     6.5624

     16  H    Isotropic =    28.1104   Anisotropy =     3.4979

     17  H    Isotropic =    28.1541   Anisotropy =     4.1510

     18  H    Isotropic =    29.6244   Anisotropy =    22.0489

     19  H    Isotropic =    28.7744   Anisotropy =    16.7661

     20  H    Isotropic =    29.4425   Anisotropy =    17.9615

     21  H    Isotropic =    27.1308   Anisotropy =     7.3884

 The electronic state is 1-A.
 Alpha  occ. eigenvalues --  -19.27746 -19.27372 -19.26621 -19.26216 -19.26130
 Alpha  occ. eigenvalues --  -10.35850 -10.32057 -10.31921 -10.31033 -10.30681
 Alpha  occ. eigenvalues --  -10.30251  -1.14148  -1.08851  -1.07008  -1.05319
 Alpha  occ. eigenvalues --   -1.03934  -0.81818  -0.80872  -0.70767  -0.68221
 Alpha  occ. eigenvalues --   -0.64297  -0.60847  -0.58120  -0.55593  -0.52764
 Alpha  occ. eigenvalues --   -0.52303  -0.51793  -0.49980  -0.46313  -0.45757
 Alpha  occ. eigenvalues --   -0.44406  -0.43318  -0.42295  -0.40728  -0.38745
 Alpha  occ. eigenvalues --   -0.37150  -0.36495  -0.35700  -0.34385  -0.32420
 Alpha  occ. eigenvalues --   -0.30108  -0.29000  -0.27601
 Alpha virt. eigenvalues --    0.00113   0.01500   0.02067   0.02567   0.04117
 Alpha virt. eigenvalues --    0.04741   0.04806   0.05457   0.05704   0.08175
 Alpha virt. eigenvalues --    0.08329   0.09025   0.09783   0.10420   0.11285

 Mulliken atomic charges:
              1
     1  C   -0.206208
     2  C    0.238884
     3  C    0.008538
     4  C   -0.221062
     5  C    0.055441
     6  C    0.037367
     7  O   -0.332843
     8  O   -0.375857
     9  O   -0.626208
    10  O   -0.546148
    11  O   -0.533170
    12  H    0.188956
    13  H    0.172853
    14  H    0.196044
    15  H    0.186570
    16  H    0.202578
    17  H    0.183756
    18  H    0.412587
    19  H    0.388771
    20  H    0.382332
    21  H    0.186820
 Sum of Mulliken atomic charges =   0.00000

 Dipole moment (field-independent basis, Debye):
    X=             -2.1209    Y=              5.6867    Z=              0.5679  Tot=              6.0958
 Quadrupole moment (field-independent basis, Debye-Ang):
   XX=            -65.2690   YY=            -59.7533   ZZ=            -67.3673
   XY=             -6.2060   XZ=             -3.7430   YZ=              1.1011

 Normal termination of Gaussian 09 at Fri Apr 12 10:45:29 2019.
