 Gaussian 09, Revision C.01,
 Gaussian 09:  EM64L-G09RevC.01 23-Sep-2011

 -----------------------------------------------------------
 # B3LYP/6-31+G** test scrf=(pcm,solvent=water,smd,dovacuum)
 -----------------------------------------------------------

 99/5=1,9=1/99;
 -------
 comment
 -------
 Charge =  0 Multiplicity = 1

                         Standard orientation:
 ---------------------------------------------------------------------
 Center     Atomic      Atomic             Coordinates (Angstroms)
 Number     Number       Type             X           Y           Z
 ---------------------------------------------------------------------
      1          6           0       -2.137858    0.228732   -0.473145
      2          6           0       -1.321461    0.542314    0.785637
      3          6           0       -0.566628   -1.388173   -0.002101
      4          6           0        1.182398    0.358183    0.441557
      5          6           0        0.843698   -0.889653   -0.390297
      6          6           0       -0.001963    1.340762    0.514736
      7          8           0       -0.979610   -0.793176    1.218282
      8          8           0       -1.520538   -0.970668   -0.976821
      9          8           0       -0.006557    2.053908   -0.726987
     10          8           0        2.355727    1.000000   -0.036986
     11          8           0        1.781438   -1.930269   -0.130853
     12          1           0       -2.087954    1.013359   -1.229011
     13          1           0       -3.182707    0.021810   -0.215648
     14          1           0       -1.914339    1.002108    1.576979
     15          1           0       -0.591666   -2.475645    0.106610
     16          1           0        1.404052    0.010351    1.454027
     17          1           0        0.839339   -0.634892   -1.459051
     18          1           0       -0.382858    2.935303   -0.580306
     19          1           0        2.044470    1.594466   -0.745526
     20          1           0        2.661076   -1.541380   -0.274979
     21          1           0        0.177789    2.043169    1.335486
 ---------------------------------------------------------------------

 SCF Done:  E(RB3LYP) =  -610.801396207     A.U. after   12 cycles

 The electronic state is 1-A.
 Alpha  occ. eigenvalues --  -19.18316 -19.17353 -19.17351 -19.16961 -19.16816
 Alpha  occ. eigenvalues --  -10.29409 -10.25057 -10.25031 -10.24287 -10.24108
 Alpha  occ. eigenvalues --  -10.23621  -1.10997  -1.05433  -1.03753  -1.02130
 Alpha  occ. eigenvalues --   -1.01087  -0.78845  -0.77965  -0.68057  -0.65667
 Alpha  occ. eigenvalues --   -0.61878  -0.58505  -0.55897  -0.53336  -0.50702
 Alpha  occ. eigenvalues --   -0.50145  -0.49592  -0.48042  -0.44393  -0.43985
 Alpha  occ. eigenvalues --   -0.42525  -0.41508  -0.40510  -0.39021  -0.37117
 Alpha  occ. eigenvalues --   -0.35811  -0.34899  -0.34009  -0.32652  -0.30864
 Alpha  occ. eigenvalues --   -0.28668  -0.27486  -0.26273
 Alpha virt. eigenvalues --    0.00267   0.01555   0.02198   0.02738   0.04201
 Alpha virt. eigenvalues --    0.04908   0.04970   0.05534   0.05818   0.08290
 Alpha virt. eigenvalues --    0.08459   0.09163   0.10008   0.10605   0.11483

 Mulliken atomic charges:
              1
     1  C   -0.137090
     2  C    0.266233
     3  C    0.107686
     4  C   -0.097474
     5  C    0.090277
     6  C    0.051363
     7  O   -0.410296
     8  O   -0.449247
     9  O   -0.670054
    10  O   -0.611865
    11  O   -0.603788
    12  H    0.176322
    13  H    0.162394
    14  H    0.180943
    15  H    0.173356
    16  H    0.184775
    17  H    0.173137
    18  H    0.431181
    19  H    0.405724
    20  H    0.404764
    21  H    0.171657
 Sum of Mulliken atomic charges =   0.00000

 Dipole moment (field-independent basis, Debye):
    X=             -2.2725    Y=              6.2134    Z=              0.6444  Tot=              6.6473
 Quadrupole moment (field-independent basis, Debye-Ang):
   XX=            -66.1059   YY=            -60.2991   ZZ=            -68.1832
   XY=             -6.7585   XZ=             -4.1219   YZ=              1.3711

 Normal termination of Gaussian 09 at Mon Apr 15 18:08:51 2019.
