 Gaussian 09, Revision C.01,
 Gaussian 09:  EM64L-G09RevC.01 23-Sep-2011

 ------------------------------------------------
 # mpw1pw91/6-31+g** nmr scrf=(pcm,solvent=water)
 ------------------------------------------------

 99/9=1/99;
 -------
 comment
 -------
 Charge =  0 Multiplicity = 1

                         Standard orientation:
 ---------------------------------------------------------------------
 Center     Atomic      Atomic             Coordinates (Angstroms)
 Number     Number       Type             X           Y           Z
 ---------------------------------------------------------------------
      1          6           0       -2.163647    0.130957   -0.425835
      2          6           0       -1.335867    0.434941    0.823175
      3          6           0       -0.481579   -1.406310   -0.070429
      4          6           0        1.185429    0.424298    0.414471
      5          6           0        0.927199   -0.856896   -0.409235
      6          6           0       -0.073190    1.312987    0.543377
      7          8           0       -0.913175   -0.899138    1.183193
      8          8           0       -1.437422   -0.953554   -1.030447
      9          8           0       -0.160146    2.059179   -0.676949
     10          8           0        2.270209    1.185229   -0.087504
     11          8           0        1.947134   -1.828424   -0.194556
     12          1           0       -2.221692    0.963037   -1.127655
     13          1           0       -3.171658   -0.200712   -0.150039
     14          1           0       -1.927316    0.826749    1.651427
     15          1           0       -0.480159   -2.499795   -0.027957
     16          1           0        1.463259    0.103171    1.424557
     17          1           0        0.962874   -0.630354   -1.478261
     18          1           0       -0.560868    2.921348   -0.487884
     19          1           0        1.865798    1.785173   -0.742493
     20          1           0        1.981855   -2.019351    0.757897
     21          1           0        0.085030    2.004536    1.377369
 ---------------------------------------------------------------------

 SCF Done:  E(RmPW1PW91) =  -610.642265907     A.U. after   12 cycles

      1  C    Isotropic =   133.0036   Anisotropy =    62.6952

      2  C    Isotropic =   118.4789   Anisotropy =    52.3913

      3  C    Isotropic =    88.6786   Anisotropy =    22.8518

      4  C    Isotropic =   124.1453   Anisotropy =    33.9705

      5  C    Isotropic =   116.9146   Anisotropy =    27.8564

      6  C    Isotropic =   126.8833   Anisotropy =    39.8944

      7  O    Isotropic =   246.3133   Anisotropy =    56.7637

      8  O    Isotropic =   256.1804   Anisotropy =   118.9646

      9  O    Isotropic =   304.2040   Anisotropy =    21.9910

     10  O    Isotropic =   310.2131   Anisotropy =    27.6990

     11  O    Isotropic =   283.5589   Anisotropy =    38.8256

     12  H    Isotropic =    26.9987   Anisotropy =     6.1402

     13  H    Isotropic =    28.0892   Anisotropy =    11.8218

     14  H    Isotropic =    26.8390   Anisotropy =     7.9216

     15  H    Isotropic =    26.2512   Anisotropy =     6.5745

     16  H    Isotropic =    28.2572   Anisotropy =     3.5711

     17  H    Isotropic =    28.3592   Anisotropy =     3.2966

     18  H    Isotropic =    29.5286   Anisotropy =    22.0763

     19  H    Isotropic =    28.4551   Anisotropy =    16.5501

     20  H    Isotropic =    30.3734   Anisotropy =    15.8115

     21  H    Isotropic =    27.1786   Anisotropy =     7.4984

 The electronic state is 1-A.
 Alpha  occ. eigenvalues --  -19.27813 -19.27434 -19.26688 -19.26398 -19.25699
 Alpha  occ. eigenvalues --  -10.35718 -10.32120 -10.31918 -10.31309 -10.30804
 Alpha  occ. eigenvalues --  -10.30246  -1.14160  -1.08816  -1.06990  -1.05256
 Alpha  occ. eigenvalues --   -1.03973  -0.81838  -0.80658  -0.70781  -0.68118
 Alpha  occ. eigenvalues --   -0.64707  -0.61230  -0.57867  -0.56138  -0.53587
 Alpha  occ. eigenvalues --   -0.52292  -0.49720  -0.49140  -0.47985  -0.46070
 Alpha  occ. eigenvalues --   -0.44437  -0.43074  -0.42153  -0.39902  -0.38817
 Alpha  occ. eigenvalues --   -0.37437  -0.36204  -0.35549  -0.34505  -0.32785
 Alpha  occ. eigenvalues --   -0.30526  -0.29519  -0.26850
 Alpha virt. eigenvalues --    0.00112   0.01566   0.02188   0.02507   0.03963
 Alpha virt. eigenvalues --    0.04718   0.04762   0.05454   0.05593   0.08056
 Alpha virt. eigenvalues --    0.08181   0.08951   0.09844   0.10576   0.11277

 Mulliken atomic charges:
              1
     1  C   -0.206445
     2  C    0.227994
     3  C    0.011173
     4  C   -0.160167
     5  C    0.014080
     6  C    0.035262
     7  O   -0.340583
     8  O   -0.381888
     9  O   -0.626744
    10  O   -0.533741
    11  O   -0.523172
    12  H    0.189017
    13  H    0.171934
    14  H    0.195993
    15  H    0.187464
    16  H    0.184870
    17  H    0.190968
    18  H    0.413938
    19  H    0.387363
    20  H    0.373941
    21  H    0.188741
 Sum of Mulliken atomic charges =   0.00000

 Dipole moment (field-independent basis, Debye):
    X=             -4.1251    Y=              4.2462    Z=              2.9722  Tot=              6.6243
 Quadrupole moment (field-independent basis, Debye-Ang):
   XX=            -72.7784   YY=            -56.1862   ZZ=            -65.7198
   XY=             -6.5908   XZ=              1.1135   YZ=             -2.4429

 Normal termination of Gaussian 09 at Fri Apr 12 10:54:52 2019.
