 Gaussian 09, Revision C.01,
 Gaussian 09:  EM64L-G09RevC.01 23-Sep-2011

 ------------------------------------------------
 # mpw1pw91/6-31+g** nmr scrf=(pcm,solvent=water)
 ------------------------------------------------

 99/9=1/99;
 -------
 comment
 -------
 Charge =  0 Multiplicity = 1

                         Standard orientation:
 ---------------------------------------------------------------------
 Center     Atomic      Atomic             Coordinates (Angstroms)
 Number     Number       Type             X           Y           Z
 ---------------------------------------------------------------------
      1          6           0       -0.887300    1.691285    0.407095
      2          6           0       -0.620398    0.966973   -0.907156
      3          6           0        1.256177    0.817078    0.296035
      4          6           0       -0.109813   -1.283186    0.230167
      5          6           0        1.319829   -0.715752    0.388170
      6          6           0       -0.916218   -0.550346   -0.880405
      7          8           0        0.813232    1.147980   -1.011103
      8          8           0        0.267384    1.328624    1.205947
      9          8           0       -2.300561   -0.804897   -0.719525
     10          8           0       -0.831637   -1.221145    1.469463
     11          8           0        2.209130   -1.208117   -0.603467
     12          1           0       -1.795294    1.366740    0.918655
     13          1           0       -0.910940    2.776774    0.269731
     14          1           0       -1.088867    1.443975   -1.769371
     15          1           0        2.222293    1.296911    0.469884
     16          1           0       -0.044621   -2.345325   -0.021686
     17          1           0        1.717080   -1.033435    1.357254
     18          1           0       -2.410814   -0.966529    0.238394
     19          1           0       -0.597338   -0.366791    1.879542
     20          1           0        2.006957   -0.718904   -1.420885
     21          1           0       -0.612493   -0.949295   -1.855488
 ---------------------------------------------------------------------

 SCF Done:  E(RmPW1PW91) =  -610.650940577     A.U. after   12 cycles

      1  C    Isotropic =   131.1616   Anisotropy =    64.9077

      2  C    Isotropic =   117.7353   Anisotropy =    58.0078

      3  C    Isotropic =    92.5677   Anisotropy =    39.5787

      4  C    Isotropic =   122.4761   Anisotropy =    48.1708

      5  C    Isotropic =   124.2946   Anisotropy =    40.2823

      6  C    Isotropic =   131.0027   Anisotropy =    51.2340

      7  O    Isotropic =   244.5720   Anisotropy =    61.6418

      8  O    Isotropic =   264.6102   Anisotropy =   103.9428

      9  O    Isotropic =   307.7200   Anisotropy =    28.1524

     10  O    Isotropic =   302.6240   Anisotropy =    54.1367

     11  O    Isotropic =   291.3641   Anisotropy =    27.5058

     12  H    Isotropic =    27.3968   Anisotropy =     6.1307

     13  H    Isotropic =    27.7791   Anisotropy =    11.7425

     14  H    Isotropic =    27.1310   Anisotropy =     7.5714

     15  H    Isotropic =    26.0710   Anisotropy =     7.9820

     16  H    Isotropic =    27.7417   Anisotropy =     7.3228

     17  H    Isotropic =    27.7222   Anisotropy =     5.7483

     18  H    Isotropic =    27.9011   Anisotropy =    16.1132

     19  H    Isotropic =    28.5596   Anisotropy =    18.0726

     20  H    Isotropic =    29.4564   Anisotropy =    13.6220

     21  H    Isotropic =    27.6496   Anisotropy =     5.6642

 The electronic state is 1-A.
 Alpha  occ. eigenvalues --  -19.28815 -19.28432 -19.27023 -19.26873 -19.26165
 Alpha  occ. eigenvalues --  -10.36705 -10.32074 -10.31877 -10.31814 -10.31588
 Alpha  occ. eigenvalues --  -10.31344  -1.15221  -1.08745  -1.07546  -1.05984
 Alpha  occ. eigenvalues --   -1.04638  -0.82636  -0.80808  -0.71255  -0.69081
 Alpha  occ. eigenvalues --   -0.65540  -0.61968  -0.59235  -0.55129  -0.53747
 Alpha  occ. eigenvalues --   -0.52480  -0.50500  -0.50198  -0.47251  -0.46895
 Alpha  occ. eigenvalues --   -0.45909  -0.43581  -0.43188  -0.41070  -0.38900
 Alpha  occ. eigenvalues --   -0.38389  -0.37616  -0.36203  -0.34446  -0.33728
 Alpha  occ. eigenvalues --   -0.30909  -0.29361  -0.28186
 Alpha virt. eigenvalues --    0.00614   0.01277   0.02445   0.02762   0.03948
 Alpha virt. eigenvalues --    0.04500   0.04985   0.05266   0.05461   0.08750
 Alpha virt. eigenvalues --    0.09014   0.09397   0.09905   0.10526   0.11292

 Mulliken atomic charges:
              1
     1  C   -0.155925
     2  C    0.253226
     3  C   -0.030970
     4  C    0.053611
     5  C    0.000517
     6  C   -0.251836
     7  O   -0.376952
     8  O   -0.426826
     9  O   -0.528865
    10  O   -0.589233
    11  O   -0.492394
    12  H    0.190749
    13  H    0.187854
    14  H    0.201411
    15  H    0.195740
    16  H    0.193431
    17  H    0.200055
    18  H    0.390728
    19  H    0.418269
    20  H    0.379055
    21  H    0.188356
 Sum of Mulliken atomic charges =   0.00000

 Dipole moment (field-independent basis, Debye):
    X=             -0.1374    Y=              2.5900    Z=             -0.0502  Tot=              2.5941
 Quadrupole moment (field-independent basis, Debye-Ang):
   XX=            -71.6997   YY=            -67.3455   ZZ=            -64.5558
   XY=             -2.5388   XZ=             -1.2289   YZ=              0.4118

 Normal termination of Gaussian 09 at Fri Apr 12 10:35:47 2019.
