 Gaussian 09, Revision C.01,
 Gaussian 09:  EM64L-G09RevC.01 23-Sep-2011

 -----------------------------------------------------------
 # B3LYP/6-31+G** test scrf=(pcm,solvent=water,smd,dovacuum)
 -----------------------------------------------------------

 99/5=1,9=1/99;
 -------
 comment
 -------
 Charge =  0 Multiplicity = 1

                         Standard orientation:
 ---------------------------------------------------------------------
 Center     Atomic      Atomic             Coordinates (Angstroms)
 Number     Number       Type             X           Y           Z
 ---------------------------------------------------------------------
      1          6           0       -0.580120    1.772660    0.521214
      2          6           0       -0.486880    1.078329   -0.842843
      3          6           0        1.399163    0.636298    0.252279
      4          6           0       -0.316144   -1.249398    0.200115
      5          6           0        1.178969   -0.881707    0.376915
      6          6           0       -1.011351   -0.372202   -0.872459
      7          8           0        0.945266    1.029822   -1.039621
      8          8           0        0.637422    1.378596    1.186243
      9          8           0       -2.418773   -0.427744   -0.727714
     10          8           0       -1.059537   -1.060418    1.413056
     11          8           0        1.984362   -1.537201   -0.599719
     12          1           0       -1.442887    1.452415    1.108664
     13          1           0       -0.591167    2.862851    0.416097
     14          1           0       -0.926050    1.661152   -1.654452
     15          1           0        2.458506    0.893163    0.341169
     16          1           0       -0.369491   -2.300426   -0.106414
     17          1           0        1.518360   -1.236934    1.354976
     18          1           0       -2.562724   -0.610501    0.221222
     19          1           0       -0.993369   -1.870238    1.942109
     20          1           0        1.857123   -1.046860   -1.431219
     21          1           0       -0.760042   -0.772930   -1.861447
 ---------------------------------------------------------------------

 SCF Done:  E(RB3LYP) =  -610.806946042     A.U. after   12 cycles

 The electronic state is 1-A.
 Alpha  occ. eigenvalues --  -19.18523 -19.17663 -19.17406 -19.17200 -19.16702
 Alpha  occ. eigenvalues --  -10.29417 -10.24908 -10.24747 -10.24612 -10.24562
 Alpha  occ. eigenvalues --  -10.23786  -1.11196  -1.05447  -1.03967  -1.02415
 Alpha  occ. eigenvalues --   -1.01158  -0.79038  -0.77640  -0.68108  -0.65919
 Alpha  occ. eigenvalues --   -0.62402  -0.59014  -0.55584  -0.53378  -0.52143
 Alpha  occ. eigenvalues --   -0.50977  -0.47825  -0.46406  -0.45076  -0.44206
 Alpha  occ. eigenvalues --   -0.43398  -0.41645  -0.40862  -0.38093  -0.37310
 Alpha  occ. eigenvalues --   -0.36527  -0.36015  -0.33402  -0.32377  -0.31618
 Alpha  occ. eigenvalues --   -0.29174  -0.27491  -0.25970
 Alpha virt. eigenvalues --    0.00468   0.01474   0.02528   0.02715   0.04260
 Alpha virt. eigenvalues --    0.04585   0.05274   0.05489   0.05899   0.08630
 Alpha virt. eigenvalues --    0.09132   0.09245   0.10165   0.10936   0.11909

 Mulliken atomic charges:
              1
     1  C   -0.146028
     2  C    0.299110
     3  C    0.023312
     4  C    0.154941
     5  C    0.081403
     6  C   -0.164626
     7  O   -0.431303
     8  O   -0.419759
     9  O   -0.606170
    10  O   -0.690117
    11  O   -0.563217
    12  H    0.177885
    13  H    0.163914
    14  H    0.180314
    15  H    0.172905
    16  H    0.172147
    17  H    0.176870
    18  H    0.408023
    19  H    0.435274
    20  H    0.399045
    21  H    0.176076
 Sum of Mulliken atomic charges =   0.00000

 Dipole moment (field-independent basis, Debye):
    X=             -0.8189    Y=             -1.3657    Z=              0.7139  Tot=              1.7451
 Quadrupole moment (field-independent basis, Debye-Ang):
   XX=            -73.6946   YY=            -61.9539   ZZ=            -64.2306
   XY=              1.2776   XZ=             -3.8857   YZ=             -6.8977

 Normal termination of Gaussian 09 at Mon Apr 15 17:50:48 2019.
