 Gaussian 09, Revision C.01,
 Gaussian 09:  EM64L-G09RevC.01 23-Sep-2011

 ------------------------------------------------
 # mpw1pw91/6-31+g** nmr scrf=(pcm,solvent=water)
 ------------------------------------------------

 99/9=1/99;
 -------
 comment
 -------
 Charge =  0 Multiplicity = 1

                         Standard orientation:
 ---------------------------------------------------------------------
 Center     Atomic      Atomic             Coordinates (Angstroms)
 Number     Number       Type             X           Y           Z
 ---------------------------------------------------------------------
      1          6           0       -2.137955    0.228910   -0.473072
      2          6           0       -1.321402    0.542519    0.785580
      3          6           0       -0.566833   -1.388067   -0.001981
      4          6           0        1.182488    0.358120    0.441667
      5          6           0        0.843547   -0.889599   -0.390253
      6          6           0       -0.001752    1.340778    0.514741
      7          8           0       -0.979640   -0.793023    1.218336
      8          8           0       -1.520708   -0.970569   -0.976772
      9          8           0       -0.006288    2.053705   -0.727213
     10          8           0        2.355997    0.999671   -0.036831
     11          8           0        1.781218   -1.930377   -0.131081
     12          1           0       -2.088216    1.013381   -1.229111
     13          1           0       -3.182712    0.021934   -0.215251
     14          1           0       -1.914152    1.002498    1.576905
     15          1           0       -0.591790   -2.475552    0.106599
     16          1           0        1.403827    0.010376    1.454221
     17          1           0        0.839223   -0.634557   -1.458935
     18          1           0       -0.383054    2.934942   -0.580722
     19          1           0        2.045004    1.593635   -0.745941
     20          1           0        2.660874   -1.541324   -0.274675
     21          1           0        0.177810    2.043455    1.335308
 ---------------------------------------------------------------------

 SCF Done:  E(RmPW1PW91) =  -610.643893644     A.U. after   12 cycles

      1  C    Isotropic =   133.4854   Anisotropy =    65.3541

      2  C    Isotropic =   118.3711   Anisotropy =    53.9974

      3  C    Isotropic =    90.7644   Anisotropy =    24.6477

      4  C    Isotropic =   124.3266   Anisotropy =    35.2454

      5  C    Isotropic =   117.7818   Anisotropy =    26.5166

      6  C    Isotropic =   126.5927   Anisotropy =    38.8920

      7  O    Isotropic =   242.8813   Anisotropy =    58.6665

      8  O    Isotropic =   255.8112   Anisotropy =   125.4231

      9  O    Isotropic =   305.5311   Anisotropy =    23.9215

     10  O    Isotropic =   314.8329   Anisotropy =    35.0482

     11  O    Isotropic =   297.6679   Anisotropy =    57.1531

     12  H    Isotropic =    27.0176   Anisotropy =     6.0250

     13  H    Isotropic =    28.0236   Anisotropy =    11.7232

     14  H    Isotropic =    26.8049   Anisotropy =     8.0215

     15  H    Isotropic =    26.2342   Anisotropy =     6.5613

     16  H    Isotropic =    28.1110   Anisotropy =     3.4976

     17  H    Isotropic =    28.1542   Anisotropy =     4.1514

     18  H    Isotropic =    29.6250   Anisotropy =    22.0449

     19  H    Isotropic =    28.7755   Anisotropy =    16.7643

     20  H    Isotropic =    29.4428   Anisotropy =    17.9600

     21  H    Isotropic =    27.1305   Anisotropy =     7.3881

 The electronic state is 1-A.
 Alpha  occ. eigenvalues --  -19.27747 -19.27370 -19.26621 -19.26216 -19.26132
 Alpha  occ. eigenvalues --  -10.35850 -10.32057 -10.31922 -10.31034 -10.30681
 Alpha  occ. eigenvalues --  -10.30252  -1.14149  -1.08849  -1.07007  -1.05318
 Alpha  occ. eigenvalues --   -1.03934  -0.81819  -0.80872  -0.70767  -0.68221
 Alpha  occ. eigenvalues --   -0.64296  -0.60847  -0.58120  -0.55592  -0.52763
 Alpha  occ. eigenvalues --   -0.52302  -0.51792  -0.49980  -0.46312  -0.45756
 Alpha  occ. eigenvalues --   -0.44406  -0.43318  -0.42296  -0.40730  -0.38745
 Alpha  occ. eigenvalues --   -0.37151  -0.36496  -0.35703  -0.34384  -0.32419
 Alpha  occ. eigenvalues --   -0.30108  -0.29000  -0.27602
 Alpha virt. eigenvalues --    0.00113   0.01500   0.02067   0.02567   0.04117
 Alpha virt. eigenvalues --    0.04741   0.04806   0.05456   0.05703   0.08175
 Alpha virt. eigenvalues --    0.08329   0.09026   0.09783   0.10419   0.11285

 Mulliken atomic charges:
              1
     1  C   -0.206153
     2  C    0.238806
     3  C    0.008595
     4  C   -0.221099
     5  C    0.055270
     6  C    0.037505
     7  O   -0.332835
     8  O   -0.375865
     9  O   -0.626251
    10  O   -0.546113
    11  O   -0.533133
    12  H    0.188963
    13  H    0.172864
    14  H    0.196054
    15  H    0.186573
    16  H    0.202594
    17  H    0.183756
    18  H    0.412570
    19  H    0.388773
    20  H    0.382311
    21  H    0.186815
 Sum of Mulliken atomic charges =   0.00000

 Dipole moment (field-independent basis, Debye):
    X=             -2.1217    Y=              5.6866    Z=              0.5685  Tot=              6.0961
 Quadrupole moment (field-independent basis, Debye-Ang):
   XX=            -65.2679   YY=            -59.7604   ZZ=            -67.3659
   XY=             -6.2076   XZ=             -3.7421   YZ=              1.0971

 Normal termination of Gaussian 09 at Fri Apr 12 10:46:14 2019.
