 Gaussian 09, Revision C.01,
 Gaussian 09:  EM64L-G09RevC.01 23-Sep-2011

 ------------------------------------------------
 # mpw1pw91/6-31+g** nmr scrf=(pcm,solvent=water)
 ------------------------------------------------

 99/9=1/99;
 -------
 comment
 -------
 Charge =  0 Multiplicity = 1

                         Standard orientation:
 ---------------------------------------------------------------------
 Center     Atomic      Atomic             Coordinates (Angstroms)
 Number     Number       Type             X           Y           Z
 ---------------------------------------------------------------------
      1          6           0       -0.665127    1.731138    0.556473
      2          6           0       -0.626056    1.038065   -0.815088
      3          6           0        1.364475    0.747379    0.118408
      4          6           0       -0.205431   -1.260515    0.228051
      5          6           0        1.258203   -0.768105    0.344431
      6          6           0       -1.022555   -0.444318   -0.811832
      7          8           0        0.777454    1.094639   -1.124239
      8          8           0        0.637413    1.459440    1.109055
      9          8           0       -2.419337   -0.538336   -0.511291
     10          8           0       -0.821287   -1.168932    1.506724
     11          8           0        2.088300   -1.367189   -0.647111
     12          1           0       -1.438377    1.337926    1.218633
     13          1           0       -0.787521    2.814360    0.448978
     14          1           0       -1.175807    1.580217   -1.586758
     15          1           0        2.408175    1.072720    0.113004
     16          1           0       -0.178337   -2.314172   -0.096536
     17          1           0        1.614771   -0.999872    1.357255
     18          1           0       -2.767662   -1.343731   -0.926894
     19          1           0       -1.776997   -1.112305    1.314044
     20          1           0        2.195575   -2.303083   -0.414128
     21          1           0       -0.815221   -0.830899   -1.815355
 ---------------------------------------------------------------------

 SCF Done:  E(RmPW1PW91) =  -610.646934554     A.U. after   12 cycles

      1  C    Isotropic =   131.5329   Anisotropy =    64.3174

      2  C    Isotropic =   120.3054   Anisotropy =    58.3647

      3  C    Isotropic =    92.5527   Anisotropy =    33.2573

      4  C    Isotropic =   122.1160   Anisotropy =    41.8693

      5  C    Isotropic =   122.3119   Anisotropy =    38.2081

      6  C    Isotropic =   128.1403   Anisotropy =    51.4195

      7  O    Isotropic =   237.1843   Anisotropy =    54.6097

      8  O    Isotropic =   264.6036   Anisotropy =   113.3820

      9  O    Isotropic =   311.6346   Anisotropy =    83.5323

     10  O    Isotropic =   307.6934   Anisotropy =    42.3738

     11  O    Isotropic =   293.4811   Anisotropy =    68.8752

     12  H    Isotropic =    27.2745   Anisotropy =     4.7956

     13  H    Isotropic =    27.8216   Anisotropy =    11.2411

     14  H    Isotropic =    27.1077   Anisotropy =     7.6006

     15  H    Isotropic =    26.0779   Anisotropy =     7.5199

     16  H    Isotropic =    27.7808   Anisotropy =     7.2707

     17  H    Isotropic =    27.6819   Anisotropy =     4.6990

     18  H    Isotropic =    29.7845   Anisotropy =    22.4779

     19  H    Isotropic =    28.1195   Anisotropy =    16.7951

     20  H    Isotropic =    29.9414   Anisotropy =    19.6384

     21  H    Isotropic =    27.3733   Anisotropy =     4.9845

 The electronic state is 1-A.
 Alpha  occ. eigenvalues --  -19.27708 -19.27560 -19.26616 -19.26474 -19.25474
 Alpha  occ. eigenvalues --  -10.35700 -10.31766 -10.31667 -10.31243 -10.31184
 Alpha  occ. eigenvalues --  -10.30295  -1.14185  -1.08836  -1.07039  -1.05383
 Alpha  occ. eigenvalues --   -1.03894  -0.82127  -0.80465  -0.70716  -0.68538
 Alpha  occ. eigenvalues --   -0.64636  -0.60283  -0.56758  -0.56263  -0.53834
 Alpha  occ. eigenvalues --   -0.52166  -0.51232  -0.49363  -0.46537  -0.46133
 Alpha  occ. eigenvalues --   -0.45447  -0.43931  -0.41867  -0.39929  -0.38898
 Alpha  occ. eigenvalues --   -0.37239  -0.36876  -0.35642  -0.34037  -0.31225
 Alpha  occ. eigenvalues --   -0.30235  -0.29206  -0.27610
 Alpha virt. eigenvalues --    0.00221   0.01193   0.02027   0.02826   0.03748
 Alpha virt. eigenvalues --    0.04585   0.05248   0.05390   0.06050   0.08114
 Alpha virt. eigenvalues --    0.08763   0.09502   0.09654   0.10870   0.11939

 Mulliken atomic charges:
              1
     1  C   -0.158764
     2  C    0.201562
     3  C   -0.068836
     4  C    0.096823
     5  C    0.051807
     6  C   -0.205513
     7  O   -0.330594
     8  O   -0.336907
     9  O   -0.614199
    10  O   -0.549657
    11  O   -0.547356
    12  H    0.182634
    13  H    0.173348
    14  H    0.195138
    15  H    0.182177
    16  H    0.157145
    17  H    0.183981
    18  H    0.411711
    19  H    0.392216
    20  H    0.391593
    21  H    0.191692
 Sum of Mulliken atomic charges =   0.00000

 Dipole moment (field-independent basis, Debye):
    X=             -2.9457    Y=             -3.3974    Z=             -1.8077  Tot=              4.8463
 Quadrupole moment (field-independent basis, Debye-Ang):
   XX=            -60.6641   YY=            -55.6715   ZZ=            -71.7751
   XY=             -1.1932   XZ=              6.6193   YZ=              2.3432

 Normal termination of Gaussian 09 at Fri Apr 12 10:50:20 2019.
