 Gaussian 09, Revision C.01,
 Gaussian 09:  EM64L-G09RevC.01 23-Sep-2011

 ------------------------------------------------
 # mpw1pw91/6-31+g** nmr scrf=(pcm,solvent=water)
 ------------------------------------------------

 99/9=1/99;
 -------
 comment
 -------
 Charge =  0 Multiplicity = 1

                         Standard orientation:
 ---------------------------------------------------------------------
 Center     Atomic      Atomic             Coordinates (Angstroms)
 Number     Number       Type             X           Y           Z
 ---------------------------------------------------------------------
      1          6           0       -1.008443    1.617020    0.450375
      2          6           0       -0.737838    0.930217   -0.885100
      3          6           0        1.193484    0.927275    0.217791
      4          6           0       -0.007955   -1.273189    0.220032
      5          6           0        1.373628   -0.590439    0.353083
      6          6           0       -0.891989   -0.607486   -0.869845
      7          8           0        0.661823    1.240393   -1.049391
      8          8           0        0.211799    1.356070    1.188053
      9          8           0       -2.245481   -0.991907   -0.693464
     10          8           0       -0.705484   -1.271312    1.475293
     11          8           0        2.272788   -0.985574   -0.673749
     12          1           0       -1.857857    1.209969    1.002648
     13          1           0       -1.137834    2.696711    0.324525
     14          1           0       -1.289171    1.368445   -1.718764
     15          1           0        2.128165    1.476651    0.352936
     16          1           0        0.129863   -2.328787   -0.035243
     17          1           0        1.777799   -0.820614    1.348688
     18          1           0       -2.334041   -1.147174    0.267299
     19          1           0       -0.519305   -0.406031    1.886861
     20          1           0        2.575687   -1.884805   -0.469850
     21          1           0       -0.562196   -0.966108   -1.851052
 ---------------------------------------------------------------------

 SCF Done:  E(RmPW1PW91) =  -610.649337481     A.U. after   12 cycles

      1  C    Isotropic =   131.8117   Anisotropy =    62.8321

      2  C    Isotropic =   117.8879   Anisotropy =    57.1127

      3  C    Isotropic =    92.4542   Anisotropy =    38.9858

      4  C    Isotropic =   121.9181   Anisotropy =    47.4521

      5  C    Isotropic =   123.6031   Anisotropy =    40.5064

      6  C    Isotropic =   130.5657   Anisotropy =    50.9954

      7  O    Isotropic =   241.6627   Anisotropy =    63.9207

      8  O    Isotropic =   262.4603   Anisotropy =   109.8627

      9  O    Isotropic =   307.8098   Anisotropy =    26.7643

     10  O    Isotropic =   302.2216   Anisotropy =    54.8252

     11  O    Isotropic =   294.9619   Anisotropy =    62.7867

     12  H    Isotropic =    27.4579   Anisotropy =     5.9967

     13  H    Isotropic =    27.8755   Anisotropy =    11.8547

     14  H    Isotropic =    27.1319   Anisotropy =     7.4979

     15  H    Isotropic =    25.9921   Anisotropy =     7.7955

     16  H    Isotropic =    27.8618   Anisotropy =     7.3363

     17  H    Isotropic =    27.5629   Anisotropy =     4.9320

     18  H    Isotropic =    28.0116   Anisotropy =    16.0888

     19  H    Isotropic =    28.6638   Anisotropy =    17.9656

     20  H    Isotropic =    29.7440   Anisotropy =    20.0499

     21  H    Isotropic =    27.5902   Anisotropy =     5.6749

 The electronic state is 1-A.
 Alpha  occ. eigenvalues --  -19.28059 -19.28036 -19.26932 -19.26907 -19.26017
 Alpha  occ. eigenvalues --  -10.36402 -10.31897 -10.31779 -10.31704 -10.31285
 Alpha  occ. eigenvalues --  -10.31090  -1.14804  -1.08622  -1.07411  -1.05777
 Alpha  occ. eigenvalues --   -1.04324  -0.82428  -0.80799  -0.71022  -0.68921
 Alpha  occ. eigenvalues --   -0.64874  -0.61886  -0.58218  -0.55832  -0.53470
 Alpha  occ. eigenvalues --   -0.52222  -0.50461  -0.49263  -0.48465  -0.46730
 Alpha  occ. eigenvalues --   -0.45204  -0.43527  -0.42521  -0.40338  -0.39742
 Alpha  occ. eigenvalues --   -0.38046  -0.37340  -0.35963  -0.33580  -0.33235
 Alpha  occ. eigenvalues --   -0.30449  -0.29416  -0.28082
 Alpha virt. eigenvalues --    0.00605   0.01090   0.02433   0.02614   0.03703
 Alpha virt. eigenvalues --    0.04672   0.05162   0.05337   0.05640   0.08292
 Alpha virt. eigenvalues --    0.09128   0.09467   0.09877   0.10599   0.11629

 Mulliken atomic charges:
              1
     1  C   -0.141656
     2  C    0.225965
     3  C   -0.019865
     4  C    0.060414
     5  C   -0.021876
     6  C   -0.202481
     7  O   -0.330917
     8  O   -0.427267
     9  O   -0.529694
    10  O   -0.591184
    11  O   -0.547021
    12  H    0.187401
    13  H    0.184738
    14  H    0.197544
    15  H    0.188615
    16  H    0.183499
    17  H    0.195357
    18  H    0.389150
    19  H    0.416345
    20  H    0.396971
    21  H    0.185963
 Sum of Mulliken atomic charges =   0.00000

 Dipole moment (field-independent basis, Debye):
    X=              0.9577    Y=             -0.2342    Z=              1.7737  Tot=              2.0293
 Quadrupole moment (field-independent basis, Debye-Ang):
   XX=            -66.0474   YY=            -61.2212   ZZ=            -69.2721
   XY=            -10.8006   XZ=              1.8057   YZ=              0.7782

 Normal termination of Gaussian 09 at Fri Apr 12 10:46:55 2019.
