 Gaussian 09, Revision C.01,
 Gaussian 09:  EM64L-G09RevC.01 23-Sep-2011

 -----------------------------------------------------------
 # B3LYP/6-31+G** test scrf=(pcm,solvent=water,smd,dovacuum)
 -----------------------------------------------------------

 99/5=1,9=1/99;
 -------
 comment
 -------
 Charge =  0 Multiplicity = 1

                         Standard orientation:
 ---------------------------------------------------------------------
 Center     Atomic      Atomic             Coordinates (Angstroms)
 Number     Number       Type             X           Y           Z
 ---------------------------------------------------------------------
      1          6           0       -2.230715    0.059249   -0.314048
      2          6           0       -1.348340    0.367908    0.886742
      3          6           0       -0.425110   -1.378104   -0.131683
      4          6           0        1.156449    0.462341    0.452766
      5          6           0        0.971259   -0.799828   -0.418197
      6          6           0       -0.137479    1.297635    0.525215
      7          8           0       -0.859240   -0.968205    1.153181
      8          8           0       -1.361124   -0.809053   -1.070177
      9          8           0       -0.300869    2.033876   -0.694763
     10          8           0        2.250335    1.251368    0.008256
     11          8           0        1.943904   -1.788197   -0.100134
     12          1           0       -2.494792    0.918191   -0.931669
     13          1           0       -3.139669   -0.468656   -0.004510
     14          1           0       -1.884974    0.704929    1.773328
     15          1           0       -0.441597   -2.470286   -0.180666
     16          1           0        1.407559    0.113727    1.458302
     17          1           0        1.031324   -0.537465   -1.484246
     18          1           0       -0.459570    1.393628   -1.410949
     19          1           0        1.887330    1.824925   -0.692102
     20          1           0        2.811970   -1.360752   -0.193153
     21          1           0       -0.018019    2.068250    1.289992
 ---------------------------------------------------------------------

 SCF Done:  E(RB3LYP) =  -610.799782730     A.U. after   12 cycles

 The electronic state is 1-A.
 Alpha  occ. eigenvalues --  -19.18434 -19.17926 -19.17563 -19.17068 -19.16901
 Alpha  occ. eigenvalues --  -10.29604 -10.25373 -10.25169 -10.24403 -10.24357
 Alpha  occ. eigenvalues --  -10.24068  -1.11304  -1.05429  -1.03926  -1.02334
 Alpha  occ. eigenvalues --   -1.01240  -0.79292  -0.77855  -0.68397  -0.65875
 Alpha  occ. eigenvalues --   -0.62486  -0.58254  -0.55907  -0.53915  -0.51584
 Alpha  occ. eigenvalues --   -0.50687  -0.48052  -0.47489  -0.45873  -0.43720
 Alpha  occ. eigenvalues --   -0.43134  -0.41777  -0.40480  -0.38340  -0.37956
 Alpha  occ. eigenvalues --   -0.35957  -0.35502  -0.34693  -0.32530  -0.30965
 Alpha  occ. eigenvalues --   -0.29125  -0.27358  -0.26706
 Alpha virt. eigenvalues --    0.00571   0.01767   0.02347   0.02619   0.03899
 Alpha virt. eigenvalues --    0.04866   0.05011   0.05727   0.05939   0.07579
 Alpha virt. eigenvalues --    0.08481   0.09118   0.09905   0.10743   0.11795

 Mulliken atomic charges:
              1
     1  C   -0.181937
     2  C    0.279608
     3  C    0.147450
     4  C   -0.048397
     5  C    0.072802
     6  C   -0.017871
     7  O   -0.429781
     8  O   -0.470669
     9  O   -0.610150
    10  O   -0.600937
    11  O   -0.610217
    12  H    0.183134
    13  H    0.170442
    14  H    0.183374
    15  H    0.173740
    16  H    0.185083
    17  H    0.176560
    18  H    0.412349
    19  H    0.406236
    20  H    0.407865
    21  H    0.171317
 Sum of Mulliken atomic charges =   0.00000

 Dipole moment (field-independent basis, Debye):
    X=             -2.3143    Y=              2.0412    Z=             -0.6262  Tot=              3.1488
 Quadrupole moment (field-independent basis, Debye-Ang):
   XX=            -63.0589   YY=            -74.9563   ZZ=            -64.0589
   XY=             -2.6247   XZ=             -4.6076   YZ=              1.8506

 Normal termination of Gaussian 09 at Mon Apr 15 18:06:28 2019.
