 Gaussian 09, Revision C.01,
 Gaussian 09:  EM64L-G09RevC.01 23-Sep-2011

 ------------------------------------------------
 # mpw1pw91/6-31+g** nmr scrf=(pcm,solvent=water)
 ------------------------------------------------

 99/9=1/99;
 -------
 comment
 -------
 Charge =  0 Multiplicity = 1

                         Standard orientation:
 ---------------------------------------------------------------------
 Center     Atomic      Atomic             Coordinates (Angstroms)
 Number     Number       Type             X           Y           Z
 ---------------------------------------------------------------------
      1          6           0       -0.666340    1.719613    0.576795
      2          6           0       -0.627491    1.046318   -0.803331
      3          6           0        1.361525    0.742901    0.120181
      4          6           0       -0.212699   -1.261607    0.219821
      5          6           0        1.248255   -0.780058    0.333821
      6          6           0       -1.021749   -0.441626   -0.813328
      7          8           0        0.776339    1.107866   -1.116742
      8          8           0        0.640729    1.449757    1.121354
      9          8           0       -2.394686   -0.649229   -0.490553
     10          8           0       -0.806001   -1.175077    1.511482
     11          8           0        1.992358   -1.479403   -0.660274
     12          1           0       -1.436153    1.305958    1.230349
     13          1           0       -0.796645    2.803701    0.488872
     14          1           0       -1.175046    1.602811   -1.568206
     15          1           0        2.405420    1.073784    0.119350
     16          1           0       -0.188461   -2.310354   -0.110472
     17          1           0        1.603348   -1.026037    1.344180
     18          1           0       -2.943029   -0.322504   -1.221114
     19          1           0       -1.765627   -1.239595    1.360415
     20          1           0        2.928759   -1.245808   -0.554303
     21          1           0       -0.791482   -0.826510   -1.814958
 ---------------------------------------------------------------------

 SCF Done:  E(RmPW1PW91) =  -610.646512384     A.U. after   12 cycles

      1  C    Isotropic =   131.5622   Anisotropy =    65.0591

      2  C    Isotropic =   119.1902   Anisotropy =    58.3353

      3  C    Isotropic =    92.1442   Anisotropy =    32.4804

      4  C    Isotropic =   123.6071   Anisotropy =    44.3700

      5  C    Isotropic =   121.7265   Anisotropy =    38.3289

      6  C    Isotropic =   128.3940   Anisotropy =    48.6553

      7  O    Isotropic =   239.0022   Anisotropy =    54.0276

      8  O    Isotropic =   263.7622   Anisotropy =   111.0484

      9  O    Isotropic =   305.9217   Anisotropy =    55.2610

     10  O    Isotropic =   312.1592   Anisotropy =    46.5533

     11  O    Isotropic =   294.8560   Anisotropy =    69.4938

     12  H    Isotropic =    27.1057   Anisotropy =     4.8437

     13  H    Isotropic =    27.8210   Anisotropy =    11.2338

     14  H    Isotropic =    27.2675   Anisotropy =     7.4098

     15  H    Isotropic =    26.2873   Anisotropy =     7.4642

     16  H    Isotropic =    27.4046   Anisotropy =     7.1127

     17  H    Isotropic =    27.7219   Anisotropy =     4.7336

     18  H    Isotropic =    29.5617   Anisotropy =    20.6392

     19  H    Isotropic =    28.6645   Anisotropy =    17.0109

     20  H    Isotropic =    30.1235   Anisotropy =    19.7982

     21  H    Isotropic =    27.4760   Anisotropy =     5.0674

 The electronic state is 1-A.
 Alpha  occ. eigenvalues --  -19.27572 -19.27390 -19.26603 -19.26506 -19.25613
 Alpha  occ. eigenvalues --  -10.35708 -10.31606 -10.31530 -10.31367 -10.31266
 Alpha  occ. eigenvalues --  -10.30182  -1.14125  -1.08718  -1.07042  -1.05460
 Alpha  occ. eigenvalues --   -1.03844  -0.81889  -0.80706  -0.70759  -0.68188
 Alpha  occ. eigenvalues --   -0.65152  -0.59798  -0.56820  -0.55912  -0.55816
 Alpha  occ. eigenvalues --   -0.52162  -0.50863  -0.47772  -0.47179  -0.45769
 Alpha  occ. eigenvalues --   -0.45144  -0.42801  -0.42083  -0.40483  -0.39566
 Alpha  occ. eigenvalues --   -0.37670  -0.37108  -0.34786  -0.33596  -0.31646
 Alpha  occ. eigenvalues --   -0.30847  -0.28764  -0.27246
 Alpha virt. eigenvalues --    0.00325   0.01111   0.02422   0.02831   0.03676
 Alpha virt. eigenvalues --    0.04258   0.05117   0.05447   0.05936   0.08334
 Alpha virt. eigenvalues --    0.08812   0.09547   0.09616   0.10933   0.11871

 Mulliken atomic charges:
              1
     1  C   -0.156708
     2  C    0.213138
     3  C   -0.139145
     4  C    0.044013
     5  C    0.123754
     6  C   -0.179292
     7  O   -0.323863
     8  O   -0.336450
     9  O   -0.613619
    10  O   -0.558107
    11  O   -0.544778
    12  H    0.185578
    13  H    0.171784
    14  H    0.193127
    15  H    0.181385
    16  H    0.169570
    17  H    0.181790
    18  H    0.412962
    19  H    0.398477
    20  H    0.389099
    21  H    0.187285
 Sum of Mulliken atomic charges =   0.00000

 Dipole moment (field-independent basis, Debye):
    X=             -1.7382    Y=              0.9842    Z=             -2.5296  Tot=              3.2232
 Quadrupole moment (field-independent basis, Debye-Ang):
   XX=            -48.8485   YY=            -68.4066   ZZ=            -69.9598
   XY=             -4.1996   XZ=              7.0664   YZ=             -1.0312

 Normal termination of Gaussian 09 at Fri Apr 12 10:39:54 2019.
