 Gaussian 09, Revision C.01,
 Gaussian 09:  EM64L-G09RevC.01 23-Sep-2011

 ------------------------------------------------
 # mpw1pw91/6-31+g** nmr scrf=(pcm,solvent=water)
 ------------------------------------------------

 99/9=1/99;
 -------
 comment
 -------
 Charge =  0 Multiplicity = 1

                         Standard orientation:
 ---------------------------------------------------------------------
 Center     Atomic      Atomic             Coordinates (Angstroms)
 Number     Number       Type             X           Y           Z
 ---------------------------------------------------------------------
      1          6           0       -0.858388    1.690495    0.421942
      2          6           0       -0.671056    0.924250   -0.883028
      3          6           0        1.279364    0.818987    0.194545
      4          6           0       -0.119187   -1.263501    0.344749
      5          6           0        1.330810   -0.712718    0.342209
      6          6           0       -0.952057   -0.590988   -0.778763
      7          8           0        0.750610    1.105810   -1.091156
      8          8           0        0.364048    1.389857    1.143708
      9          8           0       -2.326478   -0.861314   -0.548258
     10          8           0       -0.696824   -1.121563    1.640405
     11          8           0        2.131326   -1.253582   -0.699880
     12          1           0       -1.716082    1.351668    1.005629
     13          1           0       -0.922972    2.769639    0.252581
     14          1           0       -1.195925    1.371096   -1.730072
     15          1           0        2.261095    1.290473    0.282216
     16          1           0       -0.087993   -2.339369    0.146948
     17          1           0        1.803889   -0.996944    1.287314
     18          1           0       -2.804724   -0.665548   -1.370281
     19          1           0       -0.433009   -0.239919    1.960763
     20          1           0        1.879703   -0.780596   -1.512865
     21          1           0       -0.622350   -1.033325   -1.730708
 ---------------------------------------------------------------------

 SCF Done:  E(RmPW1PW91) =  -610.646414027     A.U. after   12 cycles

      1  C    Isotropic =   131.0197   Anisotropy =    64.6942

      2  C    Isotropic =   117.2487   Anisotropy =    56.9315

      3  C    Isotropic =    92.3819   Anisotropy =    39.3053

      4  C    Isotropic =   121.6400   Anisotropy =    47.3639

      5  C    Isotropic =   122.9455   Anisotropy =    39.9177

      6  C    Isotropic =   129.0263   Anisotropy =    50.2743

      7  O    Isotropic =   242.2993   Anisotropy =    61.2324

      8  O    Isotropic =   264.6590   Anisotropy =   105.2147

      9  O    Isotropic =   302.6759   Anisotropy =    56.6918

     10  O    Isotropic =   301.2676   Anisotropy =    39.3315

     11  O    Isotropic =   289.4930   Anisotropy =    27.9479

     12  H    Isotropic =    27.1365   Anisotropy =     6.0721

     13  H    Isotropic =    27.7484   Anisotropy =    11.5546

     14  H    Isotropic =    27.2223   Anisotropy =     7.3806

     15  H    Isotropic =    26.0555   Anisotropy =     7.8932

     16  H    Isotropic =    27.6260   Anisotropy =     6.5898

     17  H    Isotropic =    27.8182   Anisotropy =     5.6058

     18  H    Isotropic =    29.8019   Anisotropy =    20.2034

     19  H    Isotropic =    28.5215   Anisotropy =    17.7774

     20  H    Isotropic =    29.5307   Anisotropy =    13.4869

     21  H    Isotropic =    27.6005   Anisotropy =     4.3792

 The electronic state is 1-A.
 Alpha  occ. eigenvalues --  -19.28766 -19.28279 -19.26702 -19.26681 -19.25510
 Alpha  occ. eigenvalues --  -10.36608 -10.32124 -10.31692 -10.31558 -10.31307
 Alpha  occ. eigenvalues --  -10.31152  -1.15125  -1.07865  -1.07320  -1.06038
 Alpha  occ. eigenvalues --   -1.04472  -0.82600  -0.80670  -0.71192  -0.68515
 Alpha  occ. eigenvalues --   -0.65748  -0.61331  -0.58581  -0.55987  -0.54015
 Alpha  occ. eigenvalues --   -0.52101  -0.50149  -0.48990  -0.48041  -0.46364
 Alpha  occ. eigenvalues --   -0.45695  -0.43659  -0.41720  -0.40570  -0.39614
 Alpha  occ. eigenvalues --   -0.38472  -0.36850  -0.36556  -0.33934  -0.33112
 Alpha  occ. eigenvalues --   -0.30395  -0.28903  -0.28038
 Alpha virt. eigenvalues --    0.00392   0.01464   0.02059   0.02792   0.04015
 Alpha virt. eigenvalues --    0.04188   0.05065   0.05318   0.05685   0.08312
 Alpha virt. eigenvalues --    0.09166   0.09448   0.09868   0.10609   0.11344

 Mulliken atomic charges:
              1
     1  C   -0.131627
     2  C    0.185750
     3  C   -0.029391
     4  C    0.009290
     5  C    0.018404
     6  C   -0.204426
     7  O   -0.378998
     8  O   -0.420769
     9  O   -0.541250
    10  O   -0.528716
    11  O   -0.494717
    12  H    0.196190
    13  H    0.185526
    14  H    0.200332
    15  H    0.194992
    16  H    0.182124
    17  H    0.198055
    18  H    0.396094
    19  H    0.398781
    20  H    0.378706
    21  H    0.185650
 Sum of Mulliken atomic charges =   0.00000

 Dipole moment (field-independent basis, Debye):
    X=             -1.3694    Y=              3.1954    Z=             -3.6916  Tot=              5.0709
 Quadrupole moment (field-independent basis, Debye-Ang):
   XX=            -66.5716   YY=            -68.8663   ZZ=            -62.3772
   XY=             -3.2267   XZ=              9.3581   YZ=              3.2931

 Normal termination of Gaussian 09 at Fri Apr 12 11:01:46 2019.
