 Gaussian 09, Revision C.01,
 Gaussian 09:  EM64L-G09RevC.01 23-Sep-2011

 ------------------------------------------------
 # mpw1pw91/6-31+g** nmr scrf=(pcm,solvent=water)
 ------------------------------------------------

 99/9=1/99;
 -------
 comment
 -------
 Charge =  0 Multiplicity = 1

                         Standard orientation:
 ---------------------------------------------------------------------
 Center     Atomic      Atomic             Coordinates (Angstroms)
 Number     Number       Type             X           Y           Z
 ---------------------------------------------------------------------
      1          6           0       -0.684713    1.723302    0.580444
      2          6           0       -0.605232    1.072580   -0.807404
      3          6           0        1.355946    0.746479    0.172218
      4          6           0       -0.223806   -1.256357    0.174109
      5          6           0        1.243777   -0.777424    0.334058
      6          6           0       -1.007963   -0.414934   -0.862653
      7          8           0        0.809804    1.144047   -1.071380
      8          8           0        0.593488    1.412353    1.171154
      9          8           0       -2.403943   -0.595140   -0.697010
     10          8           0       -0.954446   -1.151786    1.404675
     11          8           0        2.080176   -1.340457   -0.673212
     12          1           0       -1.487702    1.321321    1.201627
     13          1           0       -0.788213    2.811423    0.505503
     14          1           0       -1.131375    1.637793   -1.579203
     15          1           0        2.398825    1.072060    0.215789
     16          1           0       -0.211620   -2.303457   -0.154895
     17          1           0        1.591781   -1.050840    1.339978
     18          1           0       -2.516617   -0.802316    0.250699
     19          1           0       -0.792930   -1.952102    1.927400
     20          1           0        2.206640   -2.279112   -0.461929
     21          1           0       -0.737475   -0.768783   -1.863420
 ---------------------------------------------------------------------

 SCF Done:  E(RmPW1PW91) =  -610.647565170     A.U. after   12 cycles

      1  C    Isotropic =   131.8118   Anisotropy =    64.2813

      2  C    Isotropic =   118.6700   Anisotropy =    58.3449

      3  C    Isotropic =    92.9850   Anisotropy =    34.1085

      4  C    Isotropic =   121.8970   Anisotropy =    44.9889

      5  C    Isotropic =   121.1280   Anisotropy =    36.6658

      6  C    Isotropic =   129.9102   Anisotropy =    51.7946

      7  O    Isotropic =   237.5717   Anisotropy =    54.3055

      8  O    Isotropic =   264.8566   Anisotropy =   113.4033

      9  O    Isotropic =   309.6773   Anisotropy =    27.8823

     10  O    Isotropic =   301.5881   Anisotropy =    41.4140

     11  O    Isotropic =   293.4282   Anisotropy =    64.9972

     12  H    Isotropic =    27.3434   Anisotropy =     4.9679

     13  H    Isotropic =    27.8227   Anisotropy =    11.4012

     14  H    Isotropic =    27.2020   Anisotropy =     7.4112

     15  H    Isotropic =    26.1170   Anisotropy =     7.5723

     16  H    Isotropic =    27.6425   Anisotropy =     6.7887

     17  H    Isotropic =    27.7432   Anisotropy =     4.6010

     18  H    Isotropic =    27.8261   Anisotropy =    16.6958

     19  H    Isotropic =    29.5285   Anisotropy =    21.2095

     20  H    Isotropic =    29.8592   Anisotropy =    19.6409

     21  H    Isotropic =    27.5332   Anisotropy =     5.4906

 The electronic state is 1-A.
 Alpha  occ. eigenvalues --  -19.27454 -19.27301 -19.26619 -19.26592 -19.25830
 Alpha  occ. eigenvalues --  -10.35710 -10.31949 -10.31402 -10.31254 -10.31190
 Alpha  occ. eigenvalues --  -10.30209  -1.14081  -1.08819  -1.07046  -1.05534
 Alpha  occ. eigenvalues --   -1.03768  -0.81757  -0.80749  -0.70612  -0.68535
 Alpha  occ. eigenvalues --   -0.64165  -0.61201  -0.57632  -0.55533  -0.54896
 Alpha  occ. eigenvalues --   -0.52060  -0.50030  -0.48422  -0.47200  -0.46552
 Alpha  occ. eigenvalues --   -0.44316  -0.43304  -0.42429  -0.40975  -0.37955
 Alpha  occ. eigenvalues --   -0.37575  -0.37331  -0.35260  -0.33499  -0.32829
 Alpha  occ. eigenvalues --   -0.30074  -0.28772  -0.27531
 Alpha virt. eigenvalues --    0.00258   0.01414   0.02081   0.02618   0.03798
 Alpha virt. eigenvalues --    0.04501   0.05268   0.05304   0.06080   0.08184
 Alpha virt. eigenvalues --    0.08926   0.09138   0.09787   0.10922   0.12058

 Mulliken atomic charges:
              1
     1  C   -0.170605
     2  C    0.262180
     3  C   -0.098554
     4  C    0.104764
     5  C    0.052375
     6  C   -0.225005
     7  O   -0.333036
     8  O   -0.341034
     9  O   -0.545527
    10  O   -0.638626
    11  O   -0.545063
    12  H    0.183930
    13  H    0.172827
    14  H    0.192687
    15  H    0.182165
    16  H    0.179072
    17  H    0.182617
    18  H    0.390700
    19  H    0.414042
    20  H    0.393770
    21  H    0.186320
 Sum of Mulliken atomic charges =   0.00000

 Dipole moment (field-independent basis, Debye):
    X=              0.1249    Y=             -4.1472    Z=              2.6409  Tot=              4.9182
 Quadrupole moment (field-independent basis, Debye-Ang):
   XX=            -70.1759   YY=            -52.3206   ZZ=            -68.2708
   XY=             -6.8406   XZ=              0.1300   YZ=             -6.7260

 Normal termination of Gaussian 09 at Fri Apr 12 10:53:14 2019.
