 Gaussian 09, Revision C.01,
 Gaussian 09:  EM64L-G09RevC.01 23-Sep-2011

 -----------------------------------------------------------
 # B3LYP/6-31+G** test scrf=(pcm,solvent=water,smd,dovacuum)
 -----------------------------------------------------------

 99/5=1,9=1/99;
 -------
 comment
 -------
 Charge =  0 Multiplicity = 1

                         Standard orientation:
 ---------------------------------------------------------------------
 Center     Atomic      Atomic             Coordinates (Angstroms)
 Number     Number       Type             X           Y           Z
 ---------------------------------------------------------------------
      1          6           0       -2.123773    0.302454   -0.502051
      2          6           0       -1.316970    0.606290    0.766540
      3          6           0       -0.621731   -1.361346    0.017200
      4          6           0        1.181909    0.327153    0.430091
      5          6           0        0.807382   -0.919394   -0.373990
      6          6           0        0.027085    1.354273    0.514085
      7          8           0       -1.022158   -0.733000    1.223731
      8          8           0       -1.556824   -0.936714   -0.969460
      9          8           0       -0.035906    2.116441   -0.683895
     10          8           0        2.323688    0.916380   -0.205977
     11          8           0        1.701375   -1.992443   -0.094944
     12          1           0       -2.022192    1.068692   -1.270462
     13          1           0       -3.181255    0.147926   -0.260276
     14          1           0       -1.909649    1.093813    1.540776
     15          1           0       -0.676546   -2.445481    0.144873
     16          1           0        1.436308   -0.003757    1.441764
     17          1           0        0.816083   -0.679585   -1.445389
     18          1           0        0.895506    2.209275   -0.963012
     19          1           0        2.816251    1.424352    0.459477
     20          1           0        2.595565   -1.659384   -0.280376
     21          1           0        0.225115    2.022253    1.365743
 ---------------------------------------------------------------------

 SCF Done:  E(RB3LYP) =  -610.801168766     A.U. after   12 cycles

 The electronic state is 1-A.
 Alpha  occ. eigenvalues --  -19.18377 -19.17712 -19.17367 -19.17049 -19.16492
 Alpha  occ. eigenvalues --  -10.29462 -10.25129 -10.24640 -10.24619 -10.24371
 Alpha  occ. eigenvalues --  -10.23590  -1.11055  -1.05551  -1.03723  -1.02164
 Alpha  occ. eigenvalues --   -1.01135  -0.78916  -0.78068  -0.67892  -0.66217
 Alpha  occ. eigenvalues --   -0.61795  -0.57418  -0.55351  -0.54295  -0.51749
 Alpha  occ. eigenvalues --   -0.50273  -0.48791  -0.47475  -0.45560  -0.44183
 Alpha  occ. eigenvalues --   -0.42749  -0.41831  -0.40277  -0.38729  -0.36402
 Alpha  occ. eigenvalues --   -0.36056  -0.35192  -0.34742  -0.31892  -0.30410
 Alpha  occ. eigenvalues --   -0.28312  -0.27958  -0.26635
 Alpha virt. eigenvalues --    0.00386   0.01401   0.02328   0.02603   0.04053
 Alpha virt. eigenvalues --    0.04739   0.05071   0.05634   0.06036   0.08317
 Alpha virt. eigenvalues --    0.08472   0.09319   0.09869   0.10616   0.11629

 Mulliken atomic charges:
              1
     1  C   -0.124357
     2  C    0.246242
     3  C    0.111945
     4  C   -0.057749
     5  C    0.022000
     6  C    0.085269
     7  O   -0.408597
     8  O   -0.448060
     9  O   -0.617133
    10  O   -0.659030
    11  O   -0.607899
    12  H    0.177677
    13  H    0.162833
    14  H    0.181637
    15  H    0.174392
    16  H    0.185153
    17  H    0.175653
    18  H    0.413009
    19  H    0.426501
    20  H    0.406522
    21  H    0.153992
 Sum of Mulliken atomic charges =   0.00000

 Dipole moment (field-independent basis, Debye):
    X=              2.8389    Y=              3.9758    Z=              2.6162  Tot=              5.5417
 Quadrupole moment (field-independent basis, Debye-Ang):
   XX=            -54.9490   YY=            -70.6775   ZZ=            -67.7055
   XY=              2.7251   XZ=              0.8252   YZ=              5.4110

 Normal termination of Gaussian 09 at Mon Apr 15 17:44:48 2019.
