 Gaussian 09, Revision C.01,
 Gaussian 09:  EM64L-G09RevC.01 23-Sep-2011

 ------------------------------------------------
 # mpw1pw91/6-31+g** nmr scrf=(pcm,solvent=water)
 ------------------------------------------------

 99/9=1/99;
 -------
 comment
 -------
 Charge =  0 Multiplicity = 1

                         Standard orientation:
 ---------------------------------------------------------------------
 Center     Atomic      Atomic             Coordinates (Angstroms)
 Number     Number       Type             X           Y           Z
 ---------------------------------------------------------------------
      1          6           0       -2.232313    0.009363   -0.284993
      2          6           0       -1.341482    0.293473    0.914167
      3          6           0       -0.380398   -1.374398   -0.194840
      4          6           0        1.164889    0.497735    0.434936
      5          6           0        1.020703   -0.777354   -0.437145
      6          6           0       -0.168863    1.270591    0.557937
      7          8           0       -0.809597   -1.037843    1.115053
      8          8           0       -1.326117   -0.765769   -1.098827
      9          8           0       -0.383165    2.030958   -0.639595
     10          8           0        2.186064    1.363210   -0.031443
     11          8           0        2.054844   -1.717924   -0.174286
     12          1           0       -2.549313    0.885588   -0.850474
     13          1           0       -3.106045   -0.583974    0.006468
     14          1           0       -1.868228    0.579243    1.824392
     15          1           0       -0.388588   -2.463109   -0.302668
     16          1           0        1.460951    0.170254    1.437541
     17          1           0        1.122406   -0.526923   -1.497247
     18          1           0       -0.534263    1.398783   -1.365561
     19          1           0        1.745102    1.951276   -0.672939
     20          1           0        2.027952   -1.934188    0.773100
     21          1           0       -0.061432    2.025547    1.339803
 ---------------------------------------------------------------------

 SCF Done:  E(RmPW1PW91) =  -610.640292033     A.U. after   12 cycles

      1  C    Isotropic =   131.3052   Anisotropy =    54.4663

      2  C    Isotropic =   119.2525   Anisotropy =    46.7342

      3  C    Isotropic =    90.2591   Anisotropy =    25.1952

      4  C    Isotropic =   122.0063   Anisotropy =    30.0065

      5  C    Isotropic =   118.0836   Anisotropy =    27.9370

      6  C    Isotropic =   124.9885   Anisotropy =    40.2099

      7  O    Isotropic =   250.8114   Anisotropy =    63.8303

      8  O    Isotropic =   253.1987   Anisotropy =   102.4031

      9  O    Isotropic =   302.5354   Anisotropy =    79.6410

     10  O    Isotropic =   305.5313   Anisotropy =    33.4565

     11  O    Isotropic =   287.1895   Anisotropy =    37.9770

     12  H    Isotropic =    27.2289   Anisotropy =     7.1137

     13  H    Isotropic =    28.0505   Anisotropy =    12.1499

     14  H    Isotropic =    26.7939   Anisotropy =     8.3249

     15  H    Isotropic =    26.2562   Anisotropy =     7.0300

     16  H    Isotropic =    28.2254   Anisotropy =     3.5775

     17  H    Isotropic =    28.3991   Anisotropy =     3.2672

     18  H    Isotropic =    30.2049   Anisotropy =    14.2322

     19  H    Isotropic =    28.7309   Anisotropy =    15.7395

     20  H    Isotropic =    30.2347   Anisotropy =    15.7759

     21  H    Isotropic =    27.4569   Anisotropy =     7.7086

 The electronic state is 1-A.
 Alpha  occ. eigenvalues --  -19.28130 -19.27837 -19.27452 -19.26695 -19.26001
 Alpha  occ. eigenvalues --  -10.36180 -10.32405 -10.32220 -10.31508 -10.31321
 Alpha  occ. eigenvalues --  -10.31047  -1.14801  -1.08848  -1.07309  -1.05518
 Alpha  occ. eigenvalues --   -1.04490  -0.82355  -0.80779  -0.71368  -0.68478
 Alpha  occ. eigenvalues --   -0.65384  -0.61417  -0.58590  -0.55784  -0.54125
 Alpha  occ. eigenvalues --   -0.52383  -0.50721  -0.49416  -0.47306  -0.46350
 Alpha  occ. eigenvalues --   -0.45229  -0.43224  -0.42317  -0.41979  -0.38139
 Alpha  occ. eigenvalues --   -0.37928  -0.36689  -0.36164  -0.34626  -0.33510
 Alpha  occ. eigenvalues --   -0.31039  -0.29550  -0.27576
 Alpha virt. eigenvalues --    0.00517   0.01595   0.02288   0.02383   0.03855
 Alpha virt. eigenvalues --    0.04645   0.04789   0.05380   0.05671   0.07277
 Alpha virt. eigenvalues --    0.08173   0.08957   0.09826   0.10573   0.11536

 Mulliken atomic charges:
              1
     1  C   -0.228753
     2  C    0.234515
     3  C    0.051544
     4  C   -0.129499
     5  C   -0.035507
     6  C   -0.022490
     7  O   -0.357091
     8  O   -0.416168
     9  O   -0.562861
    10  O   -0.516587
    11  O   -0.517230
    12  H    0.194032
    13  H    0.184645
    14  H    0.198857
    15  H    0.192307
    16  H    0.186590
    17  H    0.192900
    18  H    0.397427
    19  H    0.386554
    20  H    0.375497
    21  H    0.191318
 Sum of Mulliken atomic charges =   0.00000

 Dipole moment (field-independent basis, Debye):
    X=             -4.1043    Y=              0.3586    Z=              1.6676  Tot=              4.4446
 Quadrupole moment (field-independent basis, Debye-Ang):
   XX=            -71.2394   YY=            -69.1090   ZZ=            -61.5923
   XY=             -2.6157   XZ=              0.6922   YZ=             -2.0082

 Normal termination of Gaussian 09 at Fri Apr 12 10:55:41 2019.
