 Gaussian 09, Revision C.01,
 Gaussian 09:  EM64L-G09RevC.01 23-Sep-2011

 -----------------------------------------------------------
 # B3LYP/6-31+G** test scrf=(pcm,solvent=water,smd,dovacuum)
 -----------------------------------------------------------

 99/5=1,9=1/99;
 -------
 comment
 -------
 Charge =  0 Multiplicity = 1

                         Standard orientation:
 ---------------------------------------------------------------------
 Center     Atomic      Atomic             Coordinates (Angstroms)
 Number     Number       Type             X           Y           Z
 ---------------------------------------------------------------------
      1          6           0       -0.858388    1.690495    0.421942
      2          6           0       -0.671056    0.924250   -0.883028
      3          6           0        1.279364    0.818987    0.194545
      4          6           0       -0.119187   -1.263501    0.344749
      5          6           0        1.330810   -0.712718    0.342209
      6          6           0       -0.952057   -0.590988   -0.778763
      7          8           0        0.750610    1.105810   -1.091156
      8          8           0        0.364048    1.389857    1.143708
      9          8           0       -2.326478   -0.861314   -0.548258
     10          8           0       -0.696824   -1.121563    1.640405
     11          8           0        2.131326   -1.253582   -0.699880
     12          1           0       -1.716082    1.351668    1.005629
     13          1           0       -0.922972    2.769639    0.252581
     14          1           0       -1.195925    1.371096   -1.730072
     15          1           0        2.261095    1.290473    0.282216
     16          1           0       -0.087993   -2.339369    0.146948
     17          1           0        1.803889   -0.996944    1.287314
     18          1           0       -2.804724   -0.665548   -1.370281
     19          1           0       -0.433009   -0.239919    1.960763
     20          1           0        1.879703   -0.780596   -1.512865
     21          1           0       -0.622350   -1.033325   -1.730708
 ---------------------------------------------------------------------

 SCF Done:  E(RB3LYP) =  -610.805459175     A.U. after   12 cycles

 The electronic state is 1-A.
 Alpha  occ. eigenvalues --  -19.18922 -19.18488 -19.17312 -19.17204 -19.16471
 Alpha  occ. eigenvalues --  -10.29818 -10.25064 -10.24816 -10.24737 -10.24598
 Alpha  occ. eigenvalues --  -10.24195  -1.11582  -1.04727  -1.04127  -1.03010
 Alpha  occ. eigenvalues --   -1.01287  -0.79417  -0.77717  -0.68340  -0.65806
 Alpha  occ. eigenvalues --   -0.63103  -0.58925  -0.56238  -0.53632  -0.51799
 Alpha  occ. eigenvalues --   -0.50030  -0.48033  -0.46937  -0.45893  -0.44412
 Alpha  occ. eigenvalues --   -0.43626  -0.41806  -0.39961  -0.38868  -0.37819
 Alpha  occ. eigenvalues --   -0.36801  -0.35385  -0.34792  -0.32321  -0.31462
 Alpha  occ. eigenvalues --   -0.28802  -0.27496  -0.26531
 Alpha virt. eigenvalues --    0.00521   0.01523   0.02244   0.02980   0.04164
 Alpha virt. eigenvalues --    0.04404   0.05281   0.05522   0.05843   0.08521
 Alpha virt. eigenvalues --    0.09354   0.09539   0.10125   0.10798   0.11579

 Mulliken atomic charges:
              1
     1  C   -0.103203
     2  C    0.231270
     3  C    0.089240
     4  C    0.062540
     5  C    0.030527
     6  C   -0.102027
     7  O   -0.439609
     8  O   -0.479606
     9  O   -0.618692
    10  O   -0.598210
    11  O   -0.558940
    12  H    0.185935
    13  H    0.171751
    14  H    0.184653
    15  H    0.177280
    16  H    0.165090
    17  H    0.183996
    18  H    0.422892
    19  H    0.417843
    20  H    0.400102
    21  H    0.177168
 Sum of Mulliken atomic charges =   0.00000

 Dipole moment (field-independent basis, Debye):
    X=             -1.4034    Y=              3.4188    Z=             -4.1401  Tot=              5.5496
 Quadrupole moment (field-independent basis, Debye-Ang):
   XX=            -67.7412   YY=            -70.1606   ZZ=            -62.6916
   XY=             -3.5783   XZ=             10.2362   YZ=              3.6642

 Normal termination of Gaussian 09 at Mon Apr 15 18:19:32 2019.
