 Gaussian 09, Revision C.01,
 Gaussian 09:  EM64L-G09RevC.01 23-Sep-2011

 ------------------------------------------------
 # mpw1pw91/6-31+g** nmr scrf=(pcm,solvent=water)
 ------------------------------------------------

 99/9=1/99;
 -------
 comment
 -------
 Charge =  0 Multiplicity = 1

                         Standard orientation:
 ---------------------------------------------------------------------
 Center     Atomic      Atomic             Coordinates (Angstroms)
 Number     Number       Type             X           Y           Z
 ---------------------------------------------------------------------
      1          6           0       -0.687556    1.710882    0.578472
      2          6           0       -0.640228    1.039191   -0.801965
      3          6           0        1.354542    0.762954    0.121305
      4          6           0       -0.196173   -1.261432    0.221974
      5          6           0        1.263132   -0.756772    0.329544
      6          6           0       -1.013998   -0.454336   -0.813490
      7          8           0        0.762552    1.121495   -1.115399
      8          8           0        0.622461    1.454680    1.122633
      9          8           0       -2.384818   -0.681825   -0.495343
     10          8           0       -0.790820   -1.180585    1.513339
     11          8           0        2.089960   -1.337649   -0.675014
     12          1           0       -1.452458    1.288374    1.232029
     13          1           0       -0.829883    2.793520    0.491286
     14          1           0       -1.195494    1.588589   -1.566435
     15          1           0        2.395322    1.097457    0.119126
     16          1           0       -0.167660   -2.312719   -0.106150
     17          1           0        1.628886   -0.997236    1.336995
     18          1           0       -2.936352   -0.347846   -1.220311
     19          1           0       -1.750213   -1.252095    1.363544
     20          1           0        2.208968   -2.274695   -0.452485
     21          1           0       -0.774102   -0.835198   -1.814362
 ---------------------------------------------------------------------

 SCF Done:  E(RmPW1PW91) =  -610.646859188     A.U. after   12 cycles

      1  C    Isotropic =   131.6433   Anisotropy =    64.6894

      2  C    Isotropic =   119.3320   Anisotropy =    57.7442

      3  C    Isotropic =    92.9808   Anisotropy =    33.8418

      4  C    Isotropic =   121.9863   Anisotropy =    44.6390

      5  C    Isotropic =   122.1827   Anisotropy =    38.3907

      6  C    Isotropic =   128.4566   Anisotropy =    48.9530

      7  O    Isotropic =   238.2153   Anisotropy =    55.0699

      8  O    Isotropic =   263.9025   Anisotropy =   114.0772

      9  O    Isotropic =   305.7964   Anisotropy =    55.0044

     10  O    Isotropic =   311.1256   Anisotropy =    42.0825

     11  O    Isotropic =   293.4232   Anisotropy =    69.1687

     12  H    Isotropic =    27.1280   Anisotropy =     4.8321

     13  H    Isotropic =    27.8270   Anisotropy =    11.2589

     14  H    Isotropic =    27.2755   Anisotropy =     7.4053

     15  H    Isotropic =    26.0922   Anisotropy =     7.5158

     16  H    Isotropic =    27.5756   Anisotropy =     7.2070

     17  H    Isotropic =    27.7164   Anisotropy =     4.6564

     18  H    Isotropic =    29.5778   Anisotropy =    20.5643

     19  H    Isotropic =    28.6612   Anisotropy =    16.7936

     20  H    Isotropic =    29.9172   Anisotropy =    19.6952

     21  H    Isotropic =    27.4527   Anisotropy =     5.0835

 The electronic state is 1-A.
 Alpha  occ. eigenvalues --  -19.27542 -19.27395 -19.26567 -19.26487 -19.25640
 Alpha  occ. eigenvalues --  -10.35689 -10.31618 -10.31527 -10.31360 -10.31267
 Alpha  occ. eigenvalues --  -10.30171  -1.14123  -1.08715  -1.07050  -1.05470
 Alpha  occ. eigenvalues --   -1.03825  -0.81914  -0.80640  -0.70867  -0.68196
 Alpha  occ. eigenvalues --   -0.65033  -0.60307  -0.56714  -0.55831  -0.54716
 Alpha  occ. eigenvalues --   -0.52207  -0.50921  -0.48920  -0.46283  -0.46060
 Alpha  occ. eigenvalues --   -0.45554  -0.42838  -0.42036  -0.40473  -0.39302
 Alpha  occ. eigenvalues --   -0.37898  -0.36741  -0.35821  -0.32876  -0.31098
 Alpha  occ. eigenvalues --   -0.30516  -0.29106  -0.27593
 Alpha virt. eigenvalues --    0.00317   0.01174   0.02192   0.02798   0.03801
 Alpha virt. eigenvalues --    0.04363   0.05228   0.05392   0.06056   0.07919
 Alpha virt. eigenvalues --    0.08996   0.09455   0.09649   0.10925   0.12045

 Mulliken atomic charges:
              1
     1  C   -0.152109
     2  C    0.198848
     3  C   -0.076470
     4  C    0.074883
     5  C    0.059202
     6  C   -0.179421
     7  O   -0.334059
     8  O   -0.336738
     9  O   -0.615590
    10  O   -0.557711
    11  O   -0.546686
    12  H    0.185178
    13  H    0.171858
    14  H    0.193281
    15  H    0.182601
    16  H    0.159282
    17  H    0.184251
    18  H    0.412611
    19  H    0.397987
    20  H    0.391878
    21  H    0.186923
 Sum of Mulliken atomic charges =   0.00000

 Dipole moment (field-independent basis, Debye):
    X=             -3.3628    Y=             -1.3804    Z=             -2.2575  Tot=              4.2790
 Quadrupole moment (field-independent basis, Debye-Ang):
   XX=            -57.8545   YY=            -59.5963   ZZ=            -70.2461
   XY=             -7.6069   XZ=              8.5728   YZ=             -0.1526

 Normal termination of Gaussian 09 at Fri Apr 12 10:41:58 2019.
