 Gaussian 09, Revision C.01,
 Gaussian 09:  EM64L-G09RevC.01 23-Sep-2011

 -----------------------------------------------------------
 # B3LYP/6-31+G** test scrf=(pcm,solvent=water,smd,dovacuum)
 -----------------------------------------------------------

 99/5=1,9=1/99;
 -------
 comment
 -------
 Charge =  0 Multiplicity = 1

                         Standard orientation:
 ---------------------------------------------------------------------
 Center     Atomic      Atomic             Coordinates (Angstroms)
 Number     Number       Type             X           Y           Z
 ---------------------------------------------------------------------
      1          6           0       -2.157823    0.120345   -0.441771
      2          6           0       -1.342232    0.442528    0.811260
      3          6           0       -0.476963   -1.408170   -0.047565
      4          6           0        1.181800    0.430342    0.415900
      5          6           0        0.930503   -0.856025   -0.391360
      6          6           0       -0.078010    1.317503    0.533319
      7          8           0       -0.920058   -0.883990    1.194114
      8          8           0       -1.428852   -0.975965   -1.021224
      9          8           0       -0.161438    2.059273   -0.690635
     10          8           0        2.264747    1.191728   -0.090968
     11          8           0        1.957960   -1.771643   -0.016823
     12          1           0       -2.206556    0.941566   -1.157006
     13          1           0       -3.169542   -0.204432   -0.171311
     14          1           0       -1.943007    0.845308    1.627557
     15          1           0       -0.476247   -2.500798    0.017653
     16          1           0        1.460868    0.105266    1.422524
     17          1           0        0.969028   -0.641382   -1.466962
     18          1           0       -0.564734    2.921233   -0.506195
     19          1           0        1.858405    1.787398   -0.748593
     20          1           0        1.952708   -2.501728   -0.656627
     21          1           0        0.076551    2.013200    1.364544
 ---------------------------------------------------------------------

 SCF Done:  E(RB3LYP) =  -610.801835740     A.U. after   12 cycles

 The electronic state is 1-A.
 Alpha  occ. eigenvalues --  -19.18270 -19.17365 -19.17354 -19.16961 -19.16539
 Alpha  occ. eigenvalues --  -10.29175 -10.25020 -10.24979 -10.24414 -10.24190
 Alpha  occ. eigenvalues --  -10.23576  -1.10935  -1.05370  -1.03638  -1.02057
 Alpha  occ. eigenvalues --   -1.01060  -0.78768  -0.77882  -0.67994  -0.65509
 Alpha  occ. eigenvalues --   -0.62106  -0.58234  -0.55120  -0.53249  -0.52479
 Alpha  occ. eigenvalues --   -0.50181  -0.49584  -0.46781  -0.44940  -0.43553
 Alpha  occ. eigenvalues --   -0.42720  -0.41729  -0.40132  -0.38235  -0.36708
 Alpha  occ. eigenvalues --   -0.36120  -0.34665  -0.33898  -0.33174  -0.30176
 Alpha  occ. eigenvalues --   -0.29228  -0.27897  -0.25828
 Alpha virt. eigenvalues --    0.00310   0.01783   0.01879   0.02866   0.04114
 Alpha virt. eigenvalues --    0.04691   0.04974   0.05627   0.05844   0.08223
 Alpha virt. eigenvalues --    0.08431   0.09034   0.09987   0.10830   0.11702

 Mulliken atomic charges:
              1
     1  C   -0.138964
     2  C    0.257616
     3  C    0.132567
     4  C   -0.067544
     5  C    0.077124
     6  C    0.050063
     7  O   -0.413956
     8  O   -0.452688
     9  O   -0.670626
    10  O   -0.615495
    11  O   -0.625201
    12  H    0.176191
    13  H    0.160999
    14  H    0.180740
    15  H    0.169706
    16  H    0.178717
    17  H    0.174660
    18  H    0.431442
    19  H    0.405901
    20  H    0.415210
    21  H    0.173539
 Sum of Mulliken atomic charges =   0.00000

 Dipole moment (field-independent basis, Debye):
    X=             -4.5318    Y=              3.3029    Z=             -0.2601  Tot=              5.6137
 Quadrupole moment (field-independent basis, Debye-Ang):
   XX=            -74.6512   YY=            -50.4415   ZZ=            -67.2549
   XY=             -9.6185   XZ=             -5.9511   YZ=              5.7773

 Normal termination of Gaussian 09 at Mon Apr 15 18:14:39 2019.
