 Gaussian 09, Revision C.01,
 Gaussian 09:  EM64L-G09RevC.01 23-Sep-2011

 ------------------------------------------------
 # mpw1pw91/6-31+g** nmr scrf=(pcm,solvent=water)
 ------------------------------------------------

 99/9=1/99;
 -------
 comment
 -------
 Charge =  0 Multiplicity = 1

                         Standard orientation:
 ---------------------------------------------------------------------
 Center     Atomic      Atomic             Coordinates (Angstroms)
 Number     Number       Type             X           Y           Z
 ---------------------------------------------------------------------
      1          6           0       -2.143052    0.228522   -0.486790
      2          6           0       -1.335517    0.555017    0.775068
      3          6           0       -0.570303   -1.378568    0.005073
      4          6           0        1.165831    0.379527    0.453894
      5          6           0        0.845193   -0.868621   -0.377692
      6          6           0       -0.023066    1.357476    0.510445
      7          8           0       -0.992671   -0.777707    1.219196
      8          8           0       -1.519458   -0.974121   -0.977923
      9          8           0       -0.119569    2.084469   -0.708179
     10          8           0        2.273848    1.100510   -0.078010
     11          8           0        1.873761   -1.846563   -0.236242
     12          1           0       -2.091645    1.006589   -1.247927
     13          1           0       -3.187418    0.017695   -0.230841
     14          1           0       -1.936795    1.016000    1.558680
     15          1           0       -0.589128   -2.466368    0.118825
     16          1           0        1.384343    0.051715    1.479861
     17          1           0        0.839982   -0.612800   -1.440138
     18          1           0        0.804846    2.250772   -0.971834
     19          1           0        2.937129    0.440901   -0.343831
     20          1           0        1.931500   -2.092226    0.703151
     21          1           0        0.145384    2.054904    1.343335
 ---------------------------------------------------------------------

 SCF Done:  E(RmPW1PW91) =  -610.642605848     A.U. after   12 cycles

      1  C    Isotropic =   133.8675   Anisotropy =    66.1460

      2  C    Isotropic =   118.9994   Anisotropy =    53.3689

      3  C    Isotropic =    89.6886   Anisotropy =    21.6964

      4  C    Isotropic =   123.3011   Anisotropy =    31.2482

      5  C    Isotropic =   117.1034   Anisotropy =    29.0391

      6  C    Isotropic =   129.5824   Anisotropy =    42.0666

      7  O    Isotropic =   244.1749   Anisotropy =    55.2313

      8  O    Isotropic =   254.2903   Anisotropy =   123.7230

      9  O    Isotropic =   312.4274   Anisotropy =    46.2068

     10  O    Isotropic =   309.9018   Anisotropy =    27.2458

     11  O    Isotropic =   290.6725   Anisotropy =    48.7252

     12  H    Isotropic =    26.9489   Anisotropy =     6.0649

     13  H    Isotropic =    28.0425   Anisotropy =    11.7748

     14  H    Isotropic =    26.7190   Anisotropy =     8.3417

     15  H    Isotropic =    26.2670   Anisotropy =     6.5711

     16  H    Isotropic =    28.1424   Anisotropy =     3.9053

     17  H    Isotropic =    28.2412   Anisotropy =     3.8909

     18  H    Isotropic =    28.3740   Anisotropy =    17.9549

     19  H    Isotropic =    29.0103   Anisotropy =    18.2055

     20  H    Isotropic =    30.4096   Anisotropy =    16.6556

     21  H    Isotropic =    27.0876   Anisotropy =     8.0632

 The electronic state is 1-A.
 Alpha  occ. eigenvalues --  -19.27892 -19.27166 -19.27129 -19.26717 -19.25921
 Alpha  occ. eigenvalues --  -10.36022 -10.32040 -10.31671 -10.31588 -10.31259
 Alpha  occ. eigenvalues --  -10.30193  -1.14267  -1.09109  -1.07213  -1.05500
 Alpha  occ. eigenvalues --   -1.04035  -0.81833  -0.81056  -0.70925  -0.68544
 Alpha  occ. eigenvalues --   -0.64757  -0.60364  -0.58092  -0.55984  -0.54436
 Alpha  occ. eigenvalues --   -0.52244  -0.50385  -0.48629  -0.48196  -0.47186
 Alpha  occ. eigenvalues --   -0.43651  -0.43187  -0.42609  -0.40649  -0.38221
 Alpha  occ. eigenvalues --   -0.37968  -0.36799  -0.36335  -0.33630  -0.32071
 Alpha  occ. eigenvalues --   -0.30765  -0.29610  -0.27382
 Alpha virt. eigenvalues --    0.00521   0.01351   0.01955   0.02473   0.04106
 Alpha virt. eigenvalues --    0.04692   0.04855   0.05361   0.05568   0.08164
 Alpha virt. eigenvalues --    0.08220   0.09379   0.09577   0.10395   0.11141

 Mulliken atomic charges:
              1
     1  C   -0.204961
     2  C    0.222529
     3  C    0.051734
     4  C   -0.071253
     5  C   -0.125401
     6  C    0.034999
     7  O   -0.336412
     8  O   -0.380265
     9  O   -0.560523
    10  O   -0.575424
    11  O   -0.537005
    12  H    0.194093
    13  H    0.172441
    14  H    0.196120
    15  H    0.190091
    16  H    0.184237
    17  H    0.206851
    18  H    0.394820
    19  H    0.393323
    20  H    0.381051
    21  H    0.168955
 Sum of Mulliken atomic charges =   0.00000

 Dipole moment (field-independent basis, Debye):
    X=              0.9344    Y=              0.1723    Z=              2.6874  Tot=              2.8504
 Quadrupole moment (field-independent basis, Debye-Ang):
   XX=            -61.2378   YY=            -68.6342   ZZ=            -65.8539
   XY=             -3.8062   XZ=             -0.2830   YZ=             -1.9281

 Normal termination of Gaussian 09 at Fri Apr 12 10:34:20 2019.
