 Gaussian 09, Revision C.01,
 Gaussian 09:  EM64L-G09RevC.01 23-Sep-2011

 -----------------------------------------------------------
 # B3LYP/6-31+G** test scrf=(pcm,solvent=water,smd,dovacuum)
 -----------------------------------------------------------

 99/5=1,9=1/99;
 -------
 comment
 -------
 Charge =  0 Multiplicity = 1

                         Standard orientation:
 ---------------------------------------------------------------------
 Center     Atomic      Atomic             Coordinates (Angstroms)
 Number     Number       Type             X           Y           Z
 ---------------------------------------------------------------------
      1          6           0       -2.232313    0.009363   -0.284993
      2          6           0       -1.341482    0.293473    0.914167
      3          6           0       -0.380398   -1.374398   -0.194840
      4          6           0        1.164889    0.497735    0.434936
      5          6           0        1.020703   -0.777354   -0.437145
      6          6           0       -0.168863    1.270591    0.557937
      7          8           0       -0.809597   -1.037843    1.115053
      8          8           0       -1.326117   -0.765769   -1.098827
      9          8           0       -0.383165    2.030958   -0.639595
     10          8           0        2.186064    1.363210   -0.031443
     11          8           0        2.054844   -1.717924   -0.174286
     12          1           0       -2.549313    0.885588   -0.850474
     13          1           0       -3.106045   -0.583974    0.006468
     14          1           0       -1.868228    0.579243    1.824392
     15          1           0       -0.388588   -2.463109   -0.302668
     16          1           0        1.460951    0.170254    1.437541
     17          1           0        1.122406   -0.526923   -1.497247
     18          1           0       -0.534263    1.398783   -1.365561
     19          1           0        1.745102    1.951276   -0.672939
     20          1           0        2.027952   -1.934188    0.773100
     21          1           0       -0.061432    2.025547    1.339803
 ---------------------------------------------------------------------

 SCF Done:  E(RB3LYP) =  -610.799688890     A.U. after   12 cycles

 The electronic state is 1-A.
 Alpha  occ. eigenvalues --  -19.18410 -19.18049 -19.17567 -19.17155 -19.16707
 Alpha  occ. eigenvalues --  -10.29423 -10.25371 -10.25173 -10.24560 -10.24425
 Alpha  occ. eigenvalues --  -10.24074  -1.11281  -1.05428  -1.03920  -1.02302
 Alpha  occ. eigenvalues --   -1.01244  -0.79165  -0.77627  -0.68409  -0.65701
 Alpha  occ. eigenvalues --   -0.62697  -0.58882  -0.56158  -0.53364  -0.51826
 Alpha  occ. eigenvalues --   -0.50103  -0.48459  -0.47242  -0.45148  -0.44180
 Alpha  occ. eigenvalues --   -0.43129  -0.41172  -0.40417  -0.40092  -0.36390
 Alpha  occ. eigenvalues --   -0.36262  -0.34878  -0.34411  -0.32819  -0.31822
 Alpha  occ. eigenvalues --   -0.29270  -0.27864  -0.26039
 Alpha virt. eigenvalues --    0.00648   0.01836   0.02385   0.02606   0.03967
 Alpha virt. eigenvalues --    0.04860   0.05027   0.05558   0.05917   0.07501
 Alpha virt. eigenvalues --    0.08343   0.09100   0.10118   0.10836   0.11798

 Mulliken atomic charges:
              1
     1  C   -0.178286
     2  C    0.264140
     3  C    0.163408
     4  C    0.009399
     5  C    0.007164
     6  C   -0.018965
     7  O   -0.433927
     8  O   -0.476661
     9  O   -0.612119
    10  O   -0.599328
    11  O   -0.592844
    12  H    0.184203
    13  H    0.171069
    14  H    0.183203
    15  H    0.174674
    16  H    0.178127
    17  H    0.181955
    18  H    0.414322
    19  H    0.406389
    20  H    0.401411
    21  H    0.172666
 Sum of Mulliken atomic charges =   0.00000

 Dipole moment (field-independent basis, Debye):
    X=             -4.4075    Y=              0.4346    Z=              1.7986  Tot=              4.7802
 Quadrupole moment (field-independent basis, Debye-Ang):
   XX=            -72.9604   YY=            -70.4929   ZZ=            -62.0526
   XY=             -2.8583   XZ=              0.8128   YZ=             -2.2376

 Normal termination of Gaussian 09 at Mon Apr 15 18:08:57 2019.
