 Gaussian 09, Revision C.01,
 Gaussian 09:  EM64L-G09RevC.01 23-Sep-2011

 ------------------------------------------------
 # mpw1pw91/6-31+g** nmr scrf=(pcm,solvent=water)
 ------------------------------------------------

 99/9=1/99;
 -------
 comment
 -------
 Charge =  0 Multiplicity = 1

                         Standard orientation:
 ---------------------------------------------------------------------
 Center     Atomic      Atomic             Coordinates (Angstroms)
 Number     Number       Type             X           Y           Z
 ---------------------------------------------------------------------
      1          6           0       -2.123773    0.302454   -0.502051
      2          6           0       -1.316970    0.606290    0.766540
      3          6           0       -0.621731   -1.361346    0.017200
      4          6           0        1.181909    0.327153    0.430091
      5          6           0        0.807382   -0.919394   -0.373990
      6          6           0        0.027085    1.354273    0.514085
      7          8           0       -1.022158   -0.733000    1.223731
      8          8           0       -1.556824   -0.936714   -0.969460
      9          8           0       -0.035906    2.116441   -0.683895
     10          8           0        2.323688    0.916380   -0.205977
     11          8           0        1.701375   -1.992443   -0.094944
     12          1           0       -2.022192    1.068692   -1.270462
     13          1           0       -3.181255    0.147926   -0.260276
     14          1           0       -1.909649    1.093813    1.540776
     15          1           0       -0.676546   -2.445481    0.144873
     16          1           0        1.436308   -0.003757    1.441764
     17          1           0        0.816083   -0.679585   -1.445389
     18          1           0        0.895506    2.209275   -0.963012
     19          1           0        2.816251    1.424352    0.459477
     20          1           0        2.595565   -1.659384   -0.280376
     21          1           0        0.225115    2.022253    1.365743
 ---------------------------------------------------------------------

 SCF Done:  E(RmPW1PW91) =  -610.643719954     A.U. after   12 cycles

      1  C    Isotropic =   133.9100   Anisotropy =    66.4687

      2  C    Isotropic =   118.8868   Anisotropy =    54.3641

      3  C    Isotropic =    91.0155   Anisotropy =    24.6786

      4  C    Isotropic =   121.9297   Anisotropy =    33.9310

      5  C    Isotropic =   118.8889   Anisotropy =    30.3618

      6  C    Isotropic =   128.7025   Anisotropy =    38.1957

      7  O    Isotropic =   244.2779   Anisotropy =    62.6096

      8  O    Isotropic =   256.0467   Anisotropy =   124.5814

      9  O    Isotropic =   310.8859   Anisotropy =    46.2657

     10  O    Isotropic =   315.7831   Anisotropy =    89.1927

     11  O    Isotropic =   296.3924   Anisotropy =    59.5678

     12  H    Isotropic =    26.9604   Anisotropy =     5.9681

     13  H    Isotropic =    28.0268   Anisotropy =    11.7106

     14  H    Isotropic =    26.6966   Anisotropy =     8.2673

     15  H    Isotropic =    26.2274   Anisotropy =     6.4843

     16  H    Isotropic =    27.9382   Anisotropy =     3.2455

     17  H    Isotropic =    28.0222   Anisotropy =     3.5956

     18  H    Isotropic =    28.2663   Anisotropy =    17.9326

     19  H    Isotropic =    29.9357   Anisotropy =    22.4620

     20  H    Isotropic =    29.4431   Anisotropy =    18.1413

     21  H    Isotropic =    27.2779   Anisotropy =     7.9883

 The electronic state is 1-A.
 Alpha  occ. eigenvalues --  -19.27772 -19.27756 -19.26600 -19.26376 -19.25852
 Alpha  occ. eigenvalues --  -10.35917 -10.31915 -10.31587 -10.31467 -10.31033
 Alpha  occ. eigenvalues --  -10.30119  -1.14173  -1.09114  -1.06837  -1.05501
 Alpha  occ. eigenvalues --   -1.03948  -0.81765  -0.81077  -0.70543  -0.68863
 Alpha  occ. eigenvalues --   -0.64131  -0.59679  -0.57613  -0.56610  -0.54039
 Alpha  occ. eigenvalues --   -0.52225  -0.50929  -0.49450  -0.47560  -0.46020
 Alpha  occ. eigenvalues --   -0.44618  -0.43637  -0.42008  -0.40302  -0.38128
 Alpha  occ. eigenvalues --   -0.37388  -0.36923  -0.36305  -0.33594  -0.32075
 Alpha  occ. eigenvalues --   -0.29765  -0.29342  -0.28044
 Alpha virt. eigenvalues --    0.00221   0.01323   0.02132   0.02528   0.03903
 Alpha virt. eigenvalues --    0.04573   0.04963   0.05543   0.05927   0.08152
 Alpha virt. eigenvalues --    0.08383   0.09148   0.09701   0.10426   0.11433

 Mulliken atomic charges:
              1
     1  C   -0.195876
     2  C    0.233683
     3  C    0.015718
     4  C   -0.179410
     5  C   -0.011693
     6  C    0.048030
     7  O   -0.330835
     8  O   -0.376106
     9  O   -0.552266
    10  O   -0.608857
    11  O   -0.536486
    12  H    0.193344
    13  H    0.171908
    14  H    0.195329
    15  H    0.187638
    16  H    0.202288
    17  H    0.188491
    18  H    0.394512
    19  H    0.408640
    20  H    0.384125
    21  H    0.167821
 Sum of Mulliken atomic charges =   0.00000

 Dipole moment (field-independent basis, Debye):
    X=              2.5832    Y=              3.5998    Z=              2.3381  Tot=              5.0098
 Quadrupole moment (field-independent basis, Debye-Ang):
   XX=            -54.8675   YY=            -69.4571   ZZ=            -66.9418
   XY=              2.5241   XZ=              0.7705   YZ=              4.8660

 Normal termination of Gaussian 09 at Fri Apr 12 10:36:19 2019.
