 Gaussian 09, Revision C.01,
 Gaussian 09:  EM64L-G09RevC.01 23-Sep-2011

 -----------------------------------------------------------
 # B3LYP/6-31+G** test scrf=(pcm,solvent=water,smd,dovacuum)
 -----------------------------------------------------------

 99/5=1,9=1/99;
 -------
 comment
 -------
 Charge =  0 Multiplicity = 1

                         Standard orientation:
 ---------------------------------------------------------------------
 Center     Atomic      Atomic             Coordinates (Angstroms)
 Number     Number       Type             X           Y           Z
 ---------------------------------------------------------------------
      1          6           0       -0.666340    1.719613    0.576795
      2          6           0       -0.627491    1.046318   -0.803331
      3          6           0        1.361525    0.742901    0.120181
      4          6           0       -0.212699   -1.261607    0.219821
      5          6           0        1.248255   -0.780058    0.333821
      6          6           0       -1.021749   -0.441626   -0.813328
      7          8           0        0.776339    1.107866   -1.116742
      8          8           0        0.640729    1.449757    1.121354
      9          8           0       -2.394686   -0.649229   -0.490553
     10          8           0       -0.806001   -1.175077    1.511482
     11          8           0        1.992358   -1.479403   -0.660274
     12          1           0       -1.436153    1.305958    1.230349
     13          1           0       -0.796645    2.803701    0.488872
     14          1           0       -1.175046    1.602811   -1.568206
     15          1           0        2.405420    1.073784    0.119350
     16          1           0       -0.188461   -2.310354   -0.110472
     17          1           0        1.603348   -1.026037    1.344180
     18          1           0       -2.943029   -0.322504   -1.221114
     19          1           0       -1.765627   -1.239595    1.360415
     20          1           0        2.928759   -1.245808   -0.554303
     21          1           0       -0.791482   -0.826510   -1.814958
 ---------------------------------------------------------------------

 SCF Done:  E(RB3LYP) =  -610.805715762     A.U. after   12 cycles

 The electronic state is 1-A.
 Alpha  occ. eigenvalues --  -19.18278 -19.17589 -19.17477 -19.17155 -19.16499
 Alpha  occ. eigenvalues --  -10.29253 -10.24778 -10.24758 -10.24717 -10.24695
 Alpha  occ. eigenvalues --  -10.23652  -1.11103  -1.05399  -1.03871  -1.02428
 Alpha  occ. eigenvalues --   -1.01123  -0.79000  -0.77948  -0.68125  -0.65688
 Alpha  occ. eigenvalues --   -0.62801  -0.57684  -0.54665  -0.53929  -0.53484
 Alpha  occ. eigenvalues --   -0.50172  -0.48839  -0.46017  -0.45343  -0.43973
 Alpha  occ. eigenvalues --   -0.43344  -0.41123  -0.40463  -0.38604  -0.38174
 Alpha  occ. eigenvalues --   -0.36428  -0.35629  -0.33309  -0.32013  -0.30166
 Alpha  occ. eigenvalues --   -0.29576  -0.27443  -0.26031
 Alpha virt. eigenvalues --    0.00444   0.01209   0.02513   0.02994   0.03799
 Alpha virt. eigenvalues --    0.04428   0.05340   0.05556   0.06069   0.08485
 Alpha virt. eigenvalues --    0.08961   0.09588   0.09854   0.11027   0.12062

 Mulliken atomic charges:
              1
     1  C   -0.111940
     2  C    0.248183
     3  C    0.003867
     4  C    0.071811
     5  C    0.140235
     6  C   -0.083183
     7  O   -0.403601
     8  O   -0.419449
     9  O   -0.665777
    10  O   -0.622784
    11  O   -0.612313
    12  H    0.176304
    13  H    0.161402
    14  H    0.179953
    15  H    0.170466
    16  H    0.154392
    17  H    0.169820
    18  H    0.435402
    19  H    0.416423
    20  H    0.415488
    21  H    0.175301
 Sum of Mulliken atomic charges =   0.00000

 Dipole moment (field-independent basis, Debye):
    X=             -1.8587    Y=              1.0844    Z=             -2.8309  Tot=              3.5559
 Quadrupole moment (field-independent basis, Debye-Ang):
   XX=            -48.1595   YY=            -69.2025   ZZ=            -71.0551
   XY=             -4.6106   XZ=              7.7588   YZ=             -1.1556

 Normal termination of Gaussian 09 at Mon Apr 15 17:55:58 2019.
