 Gaussian 09, Revision C.01,
 Gaussian 09:  EM64L-G09RevC.01 23-Sep-2011

 ------------------------------------------------
 # mpw1pw91/6-31+g** nmr scrf=(pcm,solvent=water)
 ------------------------------------------------

 99/9=1/99;
 -------
 comment
 -------
 Charge =  0 Multiplicity = 1

                         Standard orientation:
 ---------------------------------------------------------------------
 Center     Atomic      Atomic             Coordinates (Angstroms)
 Number     Number       Type             X           Y           Z
 ---------------------------------------------------------------------
      1          6           0       -0.684914    1.723145    0.580489
      2          6           0       -0.605133    1.072500   -0.807439
      3          6           0        1.355890    0.746569    0.172490
      4          6           0       -0.223743   -1.256468    0.174018
      5          6           0        1.243787   -0.777370    0.334023
      6          6           0       -1.007906   -0.415023   -0.862695
      7          8           0        0.809841    1.144234   -1.071213
      8          8           0        0.593333    1.412208    1.171277
      9          8           0       -2.403915   -0.594848   -0.697065
     10          8           0       -0.954630   -1.151995    1.404492
     11          8           0        2.080105   -1.340215   -0.673435
     12          1           0       -1.487736    1.320978    1.201705
     13          1           0       -0.788399    2.811258    0.505562
     14          1           0       -1.131237    1.637547   -1.579382
     15          1           0        2.398754    1.072236    0.215987
     16          1           0       -0.211289   -2.303603   -0.154892
     17          1           0        1.591839   -1.051085    1.339843
     18          1           0       -2.516552   -0.803304    0.250364
     19          1           0       -0.792334   -1.951884    1.927629
     20          1           0        2.208551   -2.278370   -0.461152
     21          1           0       -0.737359   -0.768968   -1.863428
 ---------------------------------------------------------------------

 SCF Done:  E(RmPW1PW91) =  -610.647566178     A.U. after   12 cycles

      1  C    Isotropic =   131.7941   Anisotropy =    64.2880

      2  C    Isotropic =   118.6844   Anisotropy =    58.3226

      3  C    Isotropic =    92.9895   Anisotropy =    34.0953

      4  C    Isotropic =   121.8974   Anisotropy =    45.0018

      5  C    Isotropic =   121.1358   Anisotropy =    36.6717

      6  C    Isotropic =   129.9143   Anisotropy =    51.8026

      7  O    Isotropic =   237.5681   Anisotropy =    54.3080

      8  O    Isotropic =   264.8927   Anisotropy =   113.3341

      9  O    Isotropic =   309.7061   Anisotropy =    27.9272

     10  O    Isotropic =   301.5685   Anisotropy =    41.4601

     11  O    Isotropic =   293.4617   Anisotropy =    64.9571

     12  H    Isotropic =    27.3425   Anisotropy =     4.9675

     13  H    Isotropic =    27.8222   Anisotropy =    11.3999

     14  H    Isotropic =    27.2028   Anisotropy =     7.4112

     15  H    Isotropic =    26.1172   Anisotropy =     7.5737

     16  H    Isotropic =    27.6412   Anisotropy =     6.7887

     17  H    Isotropic =    27.7435   Anisotropy =     4.6004

     18  H    Isotropic =    27.8256   Anisotropy =    16.7010

     19  H    Isotropic =    29.5296   Anisotropy =    21.2057

     20  H    Isotropic =    29.8564   Anisotropy =    19.6513

     21  H    Isotropic =    27.5332   Anisotropy =     5.4918

 The electronic state is 1-A.
 Alpha  occ. eigenvalues --  -19.27453 -19.27301 -19.26618 -19.26592 -19.25829
 Alpha  occ. eigenvalues --  -10.35709 -10.31948 -10.31402 -10.31253 -10.31189
 Alpha  occ. eigenvalues --  -10.30209  -1.14082  -1.08819  -1.07046  -1.05533
 Alpha  occ. eigenvalues --   -1.03768  -0.81756  -0.80749  -0.70610  -0.68535
 Alpha  occ. eigenvalues --   -0.64165  -0.61200  -0.57630  -0.55532  -0.54898
 Alpha  occ. eigenvalues --   -0.52059  -0.50032  -0.48421  -0.47199  -0.46554
 Alpha  occ. eigenvalues --   -0.44315  -0.43303  -0.42428  -0.40972  -0.37952
 Alpha  occ. eigenvalues --   -0.37577  -0.37331  -0.35260  -0.33499  -0.32827
 Alpha  occ. eigenvalues --   -0.30077  -0.28772  -0.27528
 Alpha virt. eigenvalues --    0.00258   0.01413   0.02082   0.02618   0.03799
 Alpha virt. eigenvalues --    0.04501   0.05268   0.05304   0.06080   0.08184
 Alpha virt. eigenvalues --    0.08926   0.09138   0.09787   0.10923   0.12058

 Mulliken atomic charges:
              1
     1  C   -0.170607
     2  C    0.262029
     3  C   -0.098473
     4  C    0.104774
     5  C    0.052214
     6  C   -0.224705
     7  O   -0.333060
     8  O   -0.341010
     9  O   -0.545621
    10  O   -0.638587
    11  O   -0.545180
    12  H    0.183973
    13  H    0.172834
    14  H    0.192673
    15  H    0.182147
    16  H    0.179090
    17  H    0.182636
    18  H    0.390727
    19  H    0.414022
    20  H    0.393843
    21  H    0.186280
 Sum of Mulliken atomic charges =   0.00000

 Dipole moment (field-independent basis, Debye):
    X=              0.1312    Y=             -4.1487    Z=              2.6442  Tot=              4.9215
 Quadrupole moment (field-independent basis, Debye-Ang):
   XX=            -70.1612   YY=            -52.3251   ZZ=            -68.2703
   XY=             -6.8470   XZ=              0.1376   YZ=             -6.7305

 Normal termination of Gaussian 09 at Fri Apr 12 10:51:35 2019.
