 Gaussian 09, Revision C.01,
 Gaussian 09:  EM64L-G09RevC.01 23-Sep-2011

 -----------------------------------------------------------
 # B3LYP/6-31+G** test scrf=(pcm,solvent=water,smd,dovacuum)
 -----------------------------------------------------------

 99/5=1,9=1/99;
 -------
 comment
 -------
 Charge =  0 Multiplicity = 1

                         Standard orientation:
 ---------------------------------------------------------------------
 Center     Atomic      Atomic             Coordinates (Angstroms)
 Number     Number       Type             X           Y           Z
 ---------------------------------------------------------------------
      1          6           0       -0.696135    1.704650    0.590547
      2          6           0       -0.681391    1.015875   -0.781029
      3          6           0        1.343998    0.780196    0.076443
      4          6           0       -0.197470   -1.251713    0.282336
      5          6           0        1.273622   -0.741394    0.289101
      6          6           0       -1.026054   -0.487213   -0.767382
      7          8           0        0.709973    1.128324   -1.139839
      8          8           0        0.633011    1.463088    1.100161
      9          8           0       -2.406392   -0.729568   -0.533738
     10          8           0       -0.816278   -1.094853    1.555316
     11          8           0        2.035581   -1.321819   -0.764735
     12          1           0       -1.436753    1.281124    1.269745
     13          1           0       -0.846535    2.785492    0.493637
     14          1           0       -1.272173    1.541452   -1.535488
     15          1           0        2.380224    1.127369    0.042554
     16          1           0       -0.184038   -2.317562    0.004955
     17          1           0        1.717297   -0.975315    1.268844
     18          1           0       -2.887558   -0.435957   -1.324236
     19          1           0       -0.262626   -1.556359    2.205453
     20          1           0        2.165487   -2.260169   -0.553575
     21          1           0       -0.719904   -0.873865   -1.749306
 ---------------------------------------------------------------------

 SCF Done:  E(RB3LYP) =  -610.804441015     A.U. after   12 cycles

 The electronic state is 1-A.
 Alpha  occ. eigenvalues --  -19.18207 -19.17411 -19.17170 -19.17150 -19.16627
 Alpha  occ. eigenvalues --  -10.29298 -10.24723 -10.24693 -10.24686 -10.24645
 Alpha  occ. eigenvalues --  -10.23572  -1.11087  -1.04835  -1.03843  -1.02709
 Alpha  occ. eigenvalues --   -1.01030  -0.79048  -0.77784  -0.68202  -0.65425
 Alpha  occ. eigenvalues --   -0.62344  -0.58239  -0.54535  -0.53947  -0.52209
 Alpha  occ. eigenvalues --   -0.51450  -0.47679  -0.46661  -0.44365  -0.44198
 Alpha  occ. eigenvalues --   -0.43433  -0.41306  -0.40804  -0.38675  -0.37326
 Alpha  occ. eigenvalues --   -0.36442  -0.35469  -0.34155  -0.31148  -0.30325
 Alpha  occ. eigenvalues --   -0.28696  -0.27692  -0.26065
 Alpha virt. eigenvalues --    0.00419   0.01428   0.02268   0.02526   0.04001
 Alpha virt. eigenvalues --    0.04443   0.05170   0.05737   0.06180   0.08142
 Alpha virt. eigenvalues --    0.08884   0.09446   0.09935   0.10865   0.12178

 Mulliken atomic charges:
              1
     1  C   -0.109043
     2  C    0.277274
     3  C    0.017421
     4  C    0.138659
     5  C    0.047165
     6  C   -0.084234
     7  O   -0.414010
     8  O   -0.419065
     9  O   -0.632851
    10  O   -0.658002
    11  O   -0.611764
    12  H    0.176001
    13  H    0.161154
    14  H    0.178086
    15  H    0.169030
    16  H    0.154552
    17  H    0.170253
    18  H    0.422939
    19  H    0.422755
    20  H    0.418206
    21  H    0.175473
 Sum of Mulliken atomic charges =   0.00000

 Dipole moment (field-independent basis, Debye):
    X=             -0.0940    Y=             -2.7095    Z=             -0.6482  Tot=              2.7875
 Quadrupole moment (field-independent basis, Debye-Ang):
   XX=            -65.7861   YY=            -57.1779   ZZ=            -64.9931
   XY=            -12.1149   XZ=             13.3976   YZ=             -4.0871

 Normal termination of Gaussian 09 at Mon Apr 15 18:12:24 2019.
