 Gaussian 09, Revision C.01,
 Gaussian 09:  EM64L-G09RevC.01 23-Sep-2011

 ------------------------------------------------
 # mpw1pw91/6-31+g** nmr scrf=(pcm,solvent=water)
 ------------------------------------------------

 99/9=1/99;
 -------
 comment
 -------
 Charge =  0 Multiplicity = 1

                         Standard orientation:
 ---------------------------------------------------------------------
 Center     Atomic      Atomic             Coordinates (Angstroms)
 Number     Number       Type             X           Y           Z
 ---------------------------------------------------------------------
      1          6           0       -0.977127    1.620479    0.466597
      2          6           0       -0.780974    0.890184   -0.858956
      3          6           0        1.210745    0.927029    0.120315
      4          6           0       -0.018574   -1.255664    0.330108
      5          6           0        1.381710   -0.588678    0.307473
      6          6           0       -0.921749   -0.645413   -0.771791
      7          8           0        0.603517    1.196698   -1.122482
      8          8           0        0.298887    1.418821    1.126990
      9          8           0       -2.263271   -1.044286   -0.525133
     10          8           0       -0.581870   -1.168935    1.637693
     11          8           0        2.196385   -1.038504   -0.767418
     12          1           0       -1.774988    1.201683    1.082666
     13          1           0       -1.143685    2.691812    0.316655
     14          1           0       -1.381547    1.298554   -1.675021
     15          1           0        2.158966    1.467221    0.173270
     16          1           0        0.087171   -2.326810    0.125187
     17          1           0        1.860903   -0.780514    1.277754
     18          1           0       -2.767414   -0.893934   -1.341037
     19          1           0       -0.364958   -0.277334    1.965513
     20          1           0        2.493687   -1.937108   -0.552967
     21          1           0       -0.561511   -1.041540   -1.731692
 ---------------------------------------------------------------------

 SCF Done:  E(RmPW1PW91) =  -610.644809925     A.U. after   12 cycles

      1  C    Isotropic =   131.6807   Anisotropy =    62.6864

      2  C    Isotropic =   117.3003   Anisotropy =    56.0859

      3  C    Isotropic =    92.3540   Anisotropy =    38.7615

      4  C    Isotropic =   121.0582   Anisotropy =    46.5778

      5  C    Isotropic =   122.2169   Anisotropy =    39.8527

      6  C    Isotropic =   128.6354   Anisotropy =    50.0873

      7  O    Isotropic =   239.4357   Anisotropy =    62.3000

      8  O    Isotropic =   262.1592   Anisotropy =   110.9433

      9  O    Isotropic =   302.9266   Anisotropy =    59.1598

     10  O    Isotropic =   300.4815   Anisotropy =    40.1299

     11  O    Isotropic =   293.1561   Anisotropy =    60.5230

     12  H    Isotropic =    27.1939   Anisotropy =     5.9187

     13  H    Isotropic =    27.8424   Anisotropy =    11.6674

     14  H    Isotropic =    27.2217   Anisotropy =     7.2953

     15  H    Isotropic =    25.9889   Anisotropy =     7.7033

     16  H    Isotropic =    27.7437   Anisotropy =     6.5920

     17  H    Isotropic =    27.6493   Anisotropy =     4.8155

     18  H    Isotropic =    29.8245   Anisotropy =    20.2148

     19  H    Isotropic =    28.6095   Anisotropy =    17.6005

     20  H    Isotropic =    29.7828   Anisotropy =    19.8604

     21  H    Isotropic =    27.4911   Anisotropy =     4.3915

 The electronic state is 1-A.
 Alpha  occ. eigenvalues --  -19.27960 -19.27893 -19.26744 -19.26477 -19.25468
 Alpha  occ. eigenvalues --  -10.36287 -10.31731 -10.31581 -10.31343 -10.31289
 Alpha  occ. eigenvalues --  -10.30870  -1.14689  -1.07736  -1.07165  -1.05821
 Alpha  occ. eigenvalues --   -1.04159  -0.82326  -0.80705  -0.70951  -0.68286
 Alpha  occ. eigenvalues --   -0.65126  -0.61405  -0.57386  -0.55078  -0.54733
 Alpha  occ. eigenvalues --   -0.52276  -0.50714  -0.49432  -0.46495  -0.46171
 Alpha  occ. eigenvalues --   -0.44949  -0.44022  -0.41733  -0.39932  -0.39183
 Alpha  occ. eigenvalues --   -0.38835  -0.37346  -0.35745  -0.32966  -0.32533
 Alpha  occ. eigenvalues --   -0.30078  -0.28737  -0.28142
 Alpha virt. eigenvalues --    0.00436   0.01150   0.02045   0.02786   0.03813
 Alpha virt. eigenvalues --    0.04346   0.05060   0.05586   0.05752   0.07992
 Alpha virt. eigenvalues --    0.09075   0.09554   0.09825   0.10601   0.11731

 Mulliken atomic charges:
              1
     1  C   -0.114019
     2  C    0.163273
     3  C   -0.020988
     4  C    0.002951
     5  C   -0.002551
     6  C   -0.148850
     7  O   -0.331359
     8  O   -0.421777
     9  O   -0.545688
    10  O   -0.531803
    11  O   -0.547408
    12  H    0.192662
    13  H    0.182177
    14  H    0.195340
    15  H    0.187604
    16  H    0.173124
    17  H    0.193275
    18  H    0.395480
    19  H    0.397966
    20  H    0.395798
    21  H    0.184792
 Sum of Mulliken atomic charges =   0.00000

 Dipole moment (field-independent basis, Debye):
    X=             -0.2573    Y=              0.2616    Z=             -1.8503  Tot=              1.8864
 Quadrupole moment (field-independent basis, Debye-Ang):
   XX=            -60.6368   YY=            -62.5001   ZZ=            -67.5502
   XY=            -10.6532   XZ=             11.6890   YZ=              4.5458

 Normal termination of Gaussian 09 at Fri Apr 12 11:01:14 2019.
