 Gaussian 09, Revision C.01,
 Gaussian 09:  EM64L-G09RevC.01 23-Sep-2011

 -----------------------------------------------------------
 # B3LYP/6-31+G** test scrf=(pcm,solvent=water,smd,dovacuum)
 -----------------------------------------------------------

 99/5=1,9=1/99;
 -------
 comment
 -------
 Charge =  0 Multiplicity = 1

                         Standard orientation:
 ---------------------------------------------------------------------
 Center     Atomic      Atomic             Coordinates (Angstroms)
 Number     Number       Type             X           Y           Z
 ---------------------------------------------------------------------
      1          6           0       -0.687556    1.710882    0.578472
      2          6           0       -0.640228    1.039191   -0.801965
      3          6           0        1.354542    0.762954    0.121305
      4          6           0       -0.196173   -1.261432    0.221974
      5          6           0        1.263132   -0.756772    0.329544
      6          6           0       -1.013998   -0.454336   -0.813490
      7          8           0        0.762552    1.121495   -1.115399
      8          8           0        0.622461    1.454680    1.122633
      9          8           0       -2.384818   -0.681825   -0.495343
     10          8           0       -0.790820   -1.180585    1.513339
     11          8           0        2.089960   -1.337649   -0.675014
     12          1           0       -1.452458    1.288374    1.232029
     13          1           0       -0.829883    2.793520    0.491286
     14          1           0       -1.195494    1.588589   -1.566435
     15          1           0        2.395322    1.097457    0.119126
     16          1           0       -0.167660   -2.312719   -0.106150
     17          1           0        1.628886   -0.997236    1.336995
     18          1           0       -2.936352   -0.347846   -1.220311
     19          1           0       -1.750213   -1.252095    1.363544
     20          1           0        2.208968   -2.274695   -0.452485
     21          1           0       -0.774102   -0.835198   -1.814362
 ---------------------------------------------------------------------

 SCF Done:  E(RB3LYP) =  -610.805943063     A.U. after   12 cycles

 The electronic state is 1-A.
 Alpha  occ. eigenvalues --  -19.18291 -19.17587 -19.17473 -19.17126 -19.16479
 Alpha  occ. eigenvalues --  -10.29327 -10.24776 -10.24747 -10.24691 -10.24608
 Alpha  occ. eigenvalues --  -10.23655  -1.11142  -1.05368  -1.03867  -1.02411
 Alpha  occ. eigenvalues --   -1.01136  -0.79064  -0.77840  -0.68239  -0.65683
 Alpha  occ. eigenvalues --   -0.62710  -0.58201  -0.54584  -0.53502  -0.52679
 Alpha  occ. eigenvalues --   -0.50230  -0.49040  -0.46939  -0.44554  -0.44238
 Alpha  occ. eigenvalues --   -0.43738  -0.41155  -0.40430  -0.38628  -0.37808
 Alpha  occ. eigenvalues --   -0.36622  -0.35401  -0.34325  -0.31278  -0.29775
 Alpha  occ. eigenvalues --   -0.29075  -0.27840  -0.26303
 Alpha virt. eigenvalues --    0.00442   0.01276   0.02312   0.02954   0.03924
 Alpha virt. eigenvalues --    0.04539   0.05401   0.05532   0.06174   0.08103
 Alpha virt. eigenvalues --    0.09121   0.09552   0.09873   0.11014   0.12217

 Mulliken atomic charges:
              1
     1  C   -0.107258
     2  C    0.237071
     3  C    0.041118
     4  C    0.108284
     5  C    0.082725
     6  C   -0.081917
     7  O   -0.410790
     8  O   -0.419294
     9  O   -0.668038
    10  O   -0.623874
    11  O   -0.612945
    12  H    0.176225
    13  H    0.161656
    14  H    0.180171
    15  H    0.169697
    16  H    0.151497
    17  H    0.172160
    18  H    0.435048
    19  H    0.416058
    20  H    0.417733
    21  H    0.174673
 Sum of Mulliken atomic charges =   0.00000

 Dipole moment (field-independent basis, Debye):
    X=             -3.6886    Y=             -1.5723    Z=             -2.5319  Tot=              4.7422
 Quadrupole moment (field-independent basis, Debye-Ang):
   XX=            -58.0591   YY=            -59.5157   ZZ=            -71.3805
   XY=             -8.3666   XZ=              9.4152   YZ=             -0.1620

 Normal termination of Gaussian 09 at Mon Apr 15 17:57:50 2019.
