 Gaussian 09, Revision C.01,
 Gaussian 09:  EM64L-G09RevC.01 23-Sep-2011

 -----------------------------------------------------------
 # B3LYP/6-31+G** test scrf=(pcm,solvent=water,smd,dovacuum)
 -----------------------------------------------------------

 99/5=1,9=1/99;
 -------
 comment
 -------
 Charge =  0 Multiplicity = 1

                         Standard orientation:
 ---------------------------------------------------------------------
 Center     Atomic      Atomic             Coordinates (Angstroms)
 Number     Number       Type             X           Y           Z
 ---------------------------------------------------------------------
      1          6           0       -0.977127    1.620479    0.466597
      2          6           0       -0.780974    0.890184   -0.858956
      3          6           0        1.210745    0.927029    0.120315
      4          6           0       -0.018574   -1.255664    0.330108
      5          6           0        1.381710   -0.588678    0.307473
      6          6           0       -0.921749   -0.645413   -0.771791
      7          8           0        0.603517    1.196698   -1.122482
      8          8           0        0.298887    1.418821    1.126990
      9          8           0       -2.263271   -1.044286   -0.525133
     10          8           0       -0.581870   -1.168935    1.637693
     11          8           0        2.196385   -1.038504   -0.767418
     12          1           0       -1.774988    1.201683    1.082666
     13          1           0       -1.143685    2.691812    0.316655
     14          1           0       -1.381547    1.298554   -1.675021
     15          1           0        2.158966    1.467221    0.173270
     16          1           0        0.087171   -2.326810    0.125187
     17          1           0        1.860903   -0.780514    1.277754
     18          1           0       -2.767414   -0.893934   -1.341037
     19          1           0       -0.364958   -0.277334    1.965513
     20          1           0        2.493687   -1.937108   -0.552967
     21          1           0       -0.561511   -1.041540   -1.731692
 ---------------------------------------------------------------------

 SCF Done:  E(RB3LYP) =  -610.804862591     A.U. after   12 cycles

 The electronic state is 1-A.
 Alpha  occ. eigenvalues --  -19.18561 -19.18239 -19.17312 -19.17141 -19.16463
 Alpha  occ. eigenvalues --  -10.29668 -10.24895 -10.24854 -10.24617 -10.24593
 Alpha  occ. eigenvalues --  -10.24057  -1.11430  -1.04687  -1.03974  -1.02907
 Alpha  occ. eigenvalues --   -1.01172  -0.79353  -0.77855  -0.68234  -0.65689
 Alpha  occ. eigenvalues --   -0.62696  -0.59128  -0.55160  -0.52974  -0.52641
 Alpha  occ. eigenvalues --   -0.50240  -0.48723  -0.47416  -0.44542  -0.44294
 Alpha  occ. eigenvalues --   -0.43043  -0.42394  -0.40002  -0.38237  -0.37872
 Alpha  occ. eigenvalues --   -0.37305  -0.35717  -0.34300  -0.31499  -0.31147
 Alpha  occ. eigenvalues --   -0.28566  -0.27440  -0.26764
 Alpha virt. eigenvalues --    0.00543   0.01262   0.02201   0.02938   0.03965
 Alpha virt. eigenvalues --    0.04507   0.05305   0.05756   0.05861   0.08196
 Alpha virt. eigenvalues --    0.09228   0.09640   0.10089   0.10712   0.11966

 Mulliken atomic charges:
              1
     1  C   -0.084271
     2  C    0.213933
     3  C    0.088188
     4  C    0.041081
     5  C    0.034424
     6  C   -0.052941
     7  O   -0.412079
     8  O   -0.481516
     9  O   -0.621309
    10  O   -0.601480
    11  O   -0.612316
    12  H    0.184031
    13  H    0.169747
    14  H    0.181936
    15  H    0.173266
    16  H    0.162868
    17  H    0.181285
    18  H    0.422818
    19  H    0.417155
    20  H    0.420986
    21  H    0.174194
 Sum of Mulliken atomic charges =   0.00000

 Dipole moment (field-independent basis, Debye):
    X=             -0.2708    Y=              0.2192    Z=             -1.9883  Tot=              2.0186
 Quadrupole moment (field-independent basis, Debye-Ang):
   XX=            -61.0600   YY=            -63.0283   ZZ=            -68.2564
   XY=            -11.7150   XZ=             12.9728   YZ=              4.9624

 Normal termination of Gaussian 09 at Mon Apr 15 18:10:28 2019.
