 Gaussian 09, Revision C.01,
 Gaussian 09:  EM64L-G09RevC.01 23-Sep-2011

 ------------------------------------------------
 # mpw1pw91/6-31+g** nmr scrf=(pcm,solvent=water)
 ------------------------------------------------

 99/9=1/99;
 -------
 comment
 -------
 Charge =  0 Multiplicity = 1

                         Standard orientation:
 ---------------------------------------------------------------------
 Center     Atomic      Atomic             Coordinates (Angstroms)
 Number     Number       Type             X           Y           Z
 ---------------------------------------------------------------------
      1          6           0       -2.230715    0.059249   -0.314048
      2          6           0       -1.348340    0.367908    0.886742
      3          6           0       -0.425110   -1.378104   -0.131683
      4          6           0        1.156449    0.462341    0.452766
      5          6           0        0.971259   -0.799828   -0.418197
      6          6           0       -0.137479    1.297635    0.525215
      7          8           0       -0.859240   -0.968205    1.153181
      8          8           0       -1.361124   -0.809053   -1.070177
      9          8           0       -0.300869    2.033876   -0.694763
     10          8           0        2.250335    1.251368    0.008256
     11          8           0        1.943904   -1.788197   -0.100134
     12          1           0       -2.494792    0.918191   -0.931669
     13          1           0       -3.139669   -0.468656   -0.004510
     14          1           0       -1.884974    0.704929    1.773328
     15          1           0       -0.441597   -2.470286   -0.180666
     16          1           0        1.407559    0.113727    1.458302
     17          1           0        1.031324   -0.537465   -1.484246
     18          1           0       -0.459570    1.393628   -1.410949
     19          1           0        1.887330    1.824925   -0.692102
     20          1           0        2.811970   -1.360752   -0.193153
     21          1           0       -0.018019    2.068250    1.289992
 ---------------------------------------------------------------------

 SCF Done:  E(RmPW1PW91) =  -610.641402372     A.U. after   12 cycles

      1  C    Isotropic =   131.8212   Anisotropy =    56.0693

      2  C    Isotropic =   119.0259   Anisotropy =    48.0729

      3  C    Isotropic =    92.0589   Anisotropy =    28.1637

      4  C    Isotropic =   122.2557   Anisotropy =    31.4962

      5  C    Isotropic =   118.5133   Anisotropy =    28.1252

      6  C    Isotropic =   124.6681   Anisotropy =    39.8344

      7  O    Isotropic =   248.1652   Anisotropy =    66.5492

      8  O    Isotropic =   254.5366   Anisotropy =   111.3272

      9  O    Isotropic =   303.9293   Anisotropy =    81.5560

     10  O    Isotropic =   309.3945   Anisotropy =    30.8558

     11  O    Isotropic =   299.3653   Anisotropy =    58.2951

     12  H    Isotropic =    27.2392   Anisotropy =     6.9995

     13  H    Isotropic =    28.0194   Anisotropy =    12.1844

     14  H    Isotropic =    26.7540   Anisotropy =     8.3534

     15  H    Isotropic =    26.2111   Anisotropy =     7.0236

     16  H    Isotropic =    28.0689   Anisotropy =     3.3588

     17  H    Isotropic =    28.2151   Anisotropy =     4.1365

     18  H    Isotropic =    30.4424   Anisotropy =    14.1733

     19  H    Isotropic =    29.0111   Anisotropy =    16.0376

     20  H    Isotropic =    29.5240   Anisotropy =    18.1464

     21  H    Isotropic =    27.4025   Anisotropy =     7.6042

 The electronic state is 1-A.
 Alpha  occ. eigenvalues --  -19.28042 -19.27646 -19.27442 -19.26513 -19.26347
 Alpha  occ. eigenvalues --  -10.36291 -10.32358 -10.32179 -10.31255 -10.31220
 Alpha  occ. eigenvalues --  -10.31005  -1.14733  -1.08875  -1.07262  -1.05606
 Alpha  occ. eigenvalues --   -1.04402  -0.82406  -0.80959  -0.71312  -0.68599
 Alpha  occ. eigenvalues --   -0.65110  -0.60709  -0.58289  -0.56332  -0.53866
 Alpha  occ. eigenvalues --   -0.52973  -0.50233  -0.49626  -0.48092  -0.45743
 Alpha  occ. eigenvalues --   -0.45170  -0.43781  -0.42350  -0.40156  -0.39733
 Alpha  occ. eigenvalues --   -0.37531  -0.37323  -0.36408  -0.34296  -0.32673
 Alpha  occ. eigenvalues --   -0.30833  -0.29003  -0.28268
 Alpha virt. eigenvalues --    0.00438   0.01634   0.02147   0.02434   0.03779
 Alpha virt. eigenvalues --    0.04666   0.04791   0.05515   0.05816   0.07377
 Alpha virt. eigenvalues --    0.08320   0.08955   0.09661   0.10485   0.11552

 Mulliken atomic charges:
              1
     1  C   -0.232696
     2  C    0.251442
     3  C    0.042695
     4  C   -0.199716
     5  C    0.031282
     6  C   -0.021576
     7  O   -0.347964
     8  O   -0.408509
     9  O   -0.561242
    10  O   -0.524954
    11  O   -0.535965
    12  H    0.191913
    13  H    0.183578
    14  H    0.198668
    15  H    0.189225
    16  H    0.204655
    17  H    0.183575
    18  H    0.394160
    19  H    0.386929
    20  H    0.385043
    21  H    0.189458
 Sum of Mulliken atomic charges =   0.00000

 Dipole moment (field-independent basis, Debye):
    X=             -2.1888    Y=              1.7798    Z=             -0.4510  Tot=              2.8569
 Quadrupole moment (field-independent basis, Debye-Ang):
   XX=            -62.1904   YY=            -73.1311   ZZ=            -63.5517
   XY=             -2.3954   XZ=             -4.1849   YZ=              1.7140

 Normal termination of Gaussian 09 at Fri Apr 12 10:50:29 2019.
