 Gaussian 09, Revision C.01,
 Gaussian 09:  EM64L-G09RevC.01 23-Sep-2011

 -----------------------------------------------------------
 # B3LYP/6-31+G** test scrf=(pcm,solvent=water,smd,dovacuum)
 -----------------------------------------------------------

 99/5=1,9=1/99;
 -------
 comment
 -------
 Charge =  0 Multiplicity = 1

                         Standard orientation:
 ---------------------------------------------------------------------
 Center     Atomic      Atomic             Coordinates (Angstroms)
 Number     Number       Type             X           Y           Z
 ---------------------------------------------------------------------
      1          6           0       -0.684914    1.723145    0.580489
      2          6           0       -0.605133    1.072500   -0.807439
      3          6           0        1.355890    0.746569    0.172490
      4          6           0       -0.223743   -1.256468    0.174018
      5          6           0        1.243787   -0.777370    0.334023
      6          6           0       -1.007906   -0.415023   -0.862695
      7          8           0        0.809841    1.144234   -1.071213
      8          8           0        0.593333    1.412208    1.171277
      9          8           0       -2.403915   -0.594848   -0.697065
     10          8           0       -0.954630   -1.151995    1.404492
     11          8           0        2.080105   -1.340215   -0.673435
     12          1           0       -1.487736    1.320978    1.201705
     13          1           0       -0.788399    2.811258    0.505562
     14          1           0       -1.131237    1.637547   -1.579382
     15          1           0        2.398754    1.072236    0.215987
     16          1           0       -0.211289   -2.303603   -0.154892
     17          1           0        1.591839   -1.051085    1.339843
     18          1           0       -2.516552   -0.803304    0.250364
     19          1           0       -0.792334   -1.951884    1.927629
     20          1           0        2.208551   -2.278370   -0.461152
     21          1           0       -0.737359   -0.768968   -1.863428
 ---------------------------------------------------------------------

 SCF Done:  E(RB3LYP) =  -610.806558028     A.U. after   12 cycles

 The electronic state is 1-A.
 Alpha  occ. eigenvalues --  -19.18241 -19.17460 -19.17386 -19.17162 -19.16684
 Alpha  occ. eigenvalues --  -10.29303 -10.24943 -10.24663 -10.24620 -10.24488
 Alpha  occ. eigenvalues --  -10.23676  -1.11098  -1.05430  -1.03827  -1.02359
 Alpha  occ. eigenvalues --   -1.01076  -0.78984  -0.77800  -0.68007  -0.65930
 Alpha  occ. eigenvalues --   -0.61880  -0.58977  -0.55322  -0.53419  -0.52713
 Alpha  occ. eigenvalues --   -0.50121  -0.48024  -0.46558  -0.45278  -0.44697
 Alpha  occ. eigenvalues --   -0.42580  -0.41527  -0.40712  -0.39283  -0.36673
 Alpha  occ. eigenvalues --   -0.36035  -0.35787  -0.33743  -0.31745  -0.31526
 Alpha  occ. eigenvalues --   -0.28615  -0.27476  -0.26230
 Alpha virt. eigenvalues --    0.00417   0.01469   0.02260   0.02792   0.03921
 Alpha virt. eigenvalues --    0.04620   0.05422   0.05515   0.06178   0.08310
 Alpha virt. eigenvalues --    0.09068   0.09257   0.10030   0.10995   0.12213

 Mulliken atomic charges:
              1
     1  C   -0.128608
     2  C    0.290724
     3  C    0.025635
     4  C    0.158134
     5  C    0.085467
     6  C   -0.149145
     7  O   -0.409898
     8  O   -0.423814
     9  O   -0.606704
    10  O   -0.692493
    11  O   -0.613484
    12  H    0.176917
    13  H    0.162167
    14  H    0.178526
    15  H    0.168862
    16  H    0.167961
    17  H    0.172987
    18  H    0.407620
    19  H    0.435262
    20  H    0.419313
    21  H    0.174570
 Sum of Mulliken atomic charges =   0.00000

 Dipole moment (field-independent basis, Debye):
    X=              0.0974    Y=             -4.5956    Z=              2.8560  Tot=              5.4116
 Quadrupole moment (field-independent basis, Debye-Ang):
   XX=            -71.3064   YY=            -51.7133   ZZ=            -69.3493
   XY=             -7.5101   XZ=              0.3193   YZ=             -7.2662

 Normal termination of Gaussian 09 at Mon Apr 15 18:05:23 2019.
