 Gaussian 09, Revision C.01,
 Gaussian 09:  EM64L-G09RevC.01 23-Sep-2011

 ------------------------------------------------
 # mpw1pw91/6-31+g** nmr scrf=(pcm,solvent=water)
 ------------------------------------------------

 99/9=1/99;
 -------
 comment
 -------
 Charge =  0 Multiplicity = 1

                         Standard orientation:
 ---------------------------------------------------------------------
 Center     Atomic      Atomic             Coordinates (Angstroms)
 Number     Number       Type             X           Y           Z
 ---------------------------------------------------------------------
      1          6           0       -2.139786    0.215106   -0.499930
      2          6           0       -1.341973    0.561627    0.763109
      3          6           0       -0.566231   -1.380070    0.027365
      4          6           0        1.160297    0.386768    0.454695
      5          6           0        0.848522   -0.869289   -0.360037
      6          6           0       -0.029314    1.362203    0.496742
      7          8           0       -0.998623   -0.762299    1.229317
      8          8           0       -1.512250   -0.994759   -0.967100
      9          8           0       -0.123155    2.080657   -0.727827
     10          8           0        2.268199    1.106334   -0.080923
     11          8           0        1.889604   -1.797142   -0.054327
     12          1           0       -2.082829    0.981708   -1.272326
     13          1           0       -3.186215    0.008131   -0.249043
     14          1           0       -1.950165    1.033314    1.535037
     15          1           0       -0.582927   -2.465250    0.163109
     16          1           0        1.377831    0.059019    1.478957
     17          1           0        0.846688   -0.627827   -1.429482
     18          1           0        0.801422    2.246764   -0.990382
     19          1           0        2.951664    0.448070   -0.292606
     20          1           0        1.909736   -2.471033   -0.752440
     21          1           0        0.135499    2.066720    1.324396
 ---------------------------------------------------------------------

 SCF Done:  E(RmPW1PW91) =  -610.643566619     A.U. after   12 cycles

      1  C    Isotropic =   133.7752   Anisotropy =    66.3863

      2  C    Isotropic =   119.3909   Anisotropy =    53.3338

      3  C    Isotropic =    89.4494   Anisotropy =    23.0516

      4  C    Isotropic =   124.8868   Anisotropy =    34.7456

      5  C    Isotropic =   117.7190   Anisotropy =    28.2549

      6  C    Isotropic =   129.4167   Anisotropy =    42.1089

      7  O    Isotropic =   244.9093   Anisotropy =    57.4373

      8  O    Isotropic =   255.9885   Anisotropy =   122.1173

      9  O    Isotropic =   312.3929   Anisotropy =    45.9663

     10  O    Isotropic =   309.1057   Anisotropy =    26.7827

     11  O    Isotropic =   296.0264   Anisotropy =    42.1593

     12  H    Isotropic =    26.9626   Anisotropy =     6.0103

     13  H    Isotropic =    28.0492   Anisotropy =    11.7722

     14  H    Isotropic =    26.7243   Anisotropy =     8.4007

     15  H    Isotropic =    26.3118   Anisotropy =     6.6262

     16  H    Isotropic =    27.9439   Anisotropy =     3.9504

     17  H    Isotropic =    28.0688   Anisotropy =     4.3774

     18  H    Isotropic =    28.4075   Anisotropy =    17.9343

     19  H    Isotropic =    28.9983   Anisotropy =    18.2612

     20  H    Isotropic =    29.3844   Anisotropy =    19.6827

     21  H    Isotropic =    27.0547   Anisotropy =     8.0874

 The electronic state is 1-A.
 Alpha  occ. eigenvalues --  -19.27769 -19.27017 -19.26968 -19.26641 -19.25863
 Alpha  occ. eigenvalues --  -10.35859 -10.31948 -10.31562 -10.31379 -10.31197
 Alpha  occ. eigenvalues --  -10.30135  -1.14160  -1.08979  -1.07077  -1.05385
 Alpha  occ. eigenvalues --   -1.03941  -0.81726  -0.81146  -0.70776  -0.68442
 Alpha  occ. eigenvalues --   -0.64400  -0.59957  -0.57615  -0.56217  -0.54575
 Alpha  occ. eigenvalues --   -0.52156  -0.50679  -0.48603  -0.47837  -0.46686
 Alpha  occ. eigenvalues --   -0.45027  -0.42953  -0.42260  -0.39669  -0.38184
 Alpha  occ. eigenvalues --   -0.37807  -0.36847  -0.36240  -0.33563  -0.31784
 Alpha  occ. eigenvalues --   -0.30525  -0.29565  -0.27483
 Alpha virt. eigenvalues --    0.00560   0.01156   0.01918   0.02683   0.04128
 Alpha virt. eigenvalues --    0.04478   0.04782   0.05459   0.05815   0.08104
 Alpha virt. eigenvalues --    0.08435   0.09338   0.09602   0.10458   0.11432

 Mulliken atomic charges:
              1
     1  C   -0.204316
     2  C    0.230344
     3  C    0.049291
     4  C   -0.099539
     5  C   -0.090768
     6  C    0.047600
     7  O   -0.335471
     8  O   -0.376876
     9  O   -0.565407
    10  O   -0.582498
    11  O   -0.560753
    12  H    0.193499
    13  H    0.171727
    14  H    0.195446
    15  H    0.185460
    16  H    0.190540
    17  H    0.199726
    18  H    0.395485
    19  H    0.392597
    20  H    0.395459
    21  H    0.168456
 Sum of Mulliken atomic charges =   0.00000

 Dipole moment (field-independent basis, Debye):
    X=              0.9824    Y=             -0.8017    Z=             -0.5401  Tot=              1.3782
 Quadrupole moment (field-independent basis, Debye-Ang):
   XX=            -61.3416   YY=            -64.3108   ZZ=            -66.1190
   XY=             -5.5523   XZ=             -6.6265   YZ=              6.2646

 Normal termination of Gaussian 09 at Fri Apr 12 10:30:54 2019.
