 Gaussian 09, Revision C.01,
 Gaussian 09:  EM64L-G09RevC.01 23-Sep-2011

 -----------------------------------------------------------
 # B3LYP/6-31+G** test scrf=(pcm,solvent=water,smd,dovacuum)
 -----------------------------------------------------------

 99/5=1,9=1/99;
 -------
 comment
 -------
 Charge =  0 Multiplicity = 1

                         Standard orientation:
 ---------------------------------------------------------------------
 Center     Atomic      Atomic             Coordinates (Angstroms)
 Number     Number       Type             X           Y           Z
 ---------------------------------------------------------------------
      1          6           0       -0.645720    1.739203    0.553657
      2          6           0       -0.614974    1.043347   -0.816937
      3          6           0        1.370391    0.728863    0.116663
      4          6           0       -0.220621   -1.260524    0.227225
      5          6           0        1.244100   -0.789664    0.349000
      6          6           0       -1.029420   -0.433832   -0.811348
      7          8           0        0.789105    1.081067   -1.126237
      8          8           0        0.654062    1.455556    1.106659
      9          8           0       -2.426399   -0.511360   -0.506983
     10          8           0       -0.834469   -1.161155    1.506242
     11          8           0        1.990507   -1.506081   -0.631479
     12          1           0       -1.423032    1.355257    1.216540
     13          1           0       -0.756889    2.823416    0.443803
     14          1           0       -1.158013    1.591167   -1.589363
     15          1           0        2.416722    1.052111    0.111883
     16          1           0       -0.197186   -2.312188   -0.097726
     17          1           0        1.590751   -1.025892    1.364649
     18          1           0       -2.785891   -1.311256   -0.923642
     19          1           0       -1.789428   -1.095957    1.312875
     20          1           0        2.928218   -1.281012   -0.519071
     21          1           0       -0.830238   -0.824214   -1.815128
 ---------------------------------------------------------------------

 SCF Done:  E(RB3LYP) =  -610.806161030     A.U. after   11 cycles

 The electronic state is 1-A.
 Alpha  occ. eigenvalues --  -19.18291 -19.17773 -19.17504 -19.17140 -19.16288
 Alpha  occ. eigenvalues --  -10.29255 -10.24931 -10.24837 -10.24658 -10.24500
 Alpha  occ. eigenvalues --  -10.23736  -1.11152  -1.05393  -1.03852  -1.02297
 Alpha  occ. eigenvalues --   -1.01167  -0.79188  -0.77742  -0.68033  -0.65874
 Alpha  occ. eigenvalues --   -0.62428  -0.57665  -0.54663  -0.54123  -0.53058
 Alpha  occ. eigenvalues --   -0.50213  -0.48946  -0.45973  -0.44938  -0.44216
 Alpha  occ. eigenvalues --   -0.43794  -0.42117  -0.40340  -0.38161  -0.37818
 Alpha  occ. eigenvalues --   -0.36037  -0.34963  -0.34347  -0.31661  -0.30346
 Alpha  occ. eigenvalues --   -0.29533  -0.27718  -0.25938
 Alpha virt. eigenvalues --    0.00397   0.01199   0.02351   0.03044   0.03959
 Alpha virt. eigenvalues --    0.04378   0.05401   0.05606   0.06070   0.08493
 Alpha virt. eigenvalues --    0.08866   0.09606   0.09925   0.10968   0.11983

 Mulliken atomic charges:
              1
     1  C   -0.121927
     2  C    0.234288
     3  C    0.015654
     4  C    0.132144
     5  C    0.127587
     6  C   -0.126306
     7  O   -0.400167
     8  O   -0.419088
     9  O   -0.658267
    10  O   -0.620511
    11  O   -0.613255
    12  H    0.176504
    13  H    0.162668
    14  H    0.180931
    15  H    0.170034
    16  H    0.150863
    17  H    0.169604
    18  H    0.431299
    19  H    0.412080
    20  H    0.415299
    21  H    0.180567
 Sum of Mulliken atomic charges =   0.00000

 Dipole moment (field-independent basis, Debye):
    X=             -1.4062    Y=             -1.1650    Z=             -2.2939  Tot=              2.9320
 Quadrupole moment (field-independent basis, Debye-Ang):
   XX=            -50.8913   YY=            -65.2956   ZZ=            -72.7728
   XY=              2.1822   XZ=              5.6056   YZ=              1.6436

 Normal termination of Gaussian 09 at Mon Apr 15 18:06:48 2019.
