 Gaussian 09, Revision C.01,
 Gaussian 09:  EM64L-G09RevC.01 23-Sep-2011

 -----------------------------------------------------------
 # B3LYP/6-31+G** test scrf=(pcm,solvent=water,smd,dovacuum)
 -----------------------------------------------------------

 99/5=1,9=1/99;
 -------
 comment
 -------
 Charge =  0 Multiplicity = 1

                         Standard orientation:
 ---------------------------------------------------------------------
 Center     Atomic      Atomic             Coordinates (Angstroms)
 Number     Number       Type             X           Y           Z
 ---------------------------------------------------------------------
      1          6           0       -0.600400    1.751013    0.530950
      2          6           0       -0.572706    1.024119   -0.819176
      3          6           0        1.393767    0.675299    0.152342
      4          6           0       -0.286224   -1.245545    0.310271
      5          6           0        1.216404   -0.844005    0.331214
      6          6           0       -1.037972   -0.446188   -0.773630
      7          8           0        0.842646    1.020518   -1.115586
      8          8           0        0.681703    1.430856    1.112859
      9          8           0       -2.435401   -0.566231   -0.556096
     10          8           0       -0.912910   -1.008633    1.567213
     11          8           0        1.950200   -1.510775   -0.692020
     12          1           0       -1.401842    1.398308    1.181199
     13          1           0       -0.667213    2.836577    0.402151
     14          1           0       -1.084839    1.569793   -1.615274
     15          1           0        2.450331    0.957438    0.159818
     16          1           0       -0.338440   -2.314487    0.057820
     17          1           0        1.652770   -1.163990    1.284099
     18          1           0       -2.880708   -0.271297   -1.366813
     19          1           0       -0.416413   -1.507218    2.235928
     20          1           0        1.757313   -1.034687   -1.519056
     21          1           0       -0.758081   -0.884471   -1.742648
 ---------------------------------------------------------------------

 SCF Done:  E(RB3LYP) =  -610.804790417     A.U. after   12 cycles

 The electronic state is 1-A.
 Alpha  occ. eigenvalues --  -19.18508 -19.17624 -19.17187 -19.17185 -19.16638
 Alpha  occ. eigenvalues --  -10.29410 -10.24812 -10.24744 -10.24667 -10.24621
 Alpha  occ. eigenvalues --  -10.23690  -1.11196  -1.04864  -1.03948  -1.02777
 Alpha  occ. eigenvalues --   -1.01134  -0.79135  -0.77586  -0.68274  -0.65494
 Alpha  occ. eigenvalues --   -0.62807  -0.57920  -0.55587  -0.54087  -0.52584
 Alpha  occ. eigenvalues --   -0.49756  -0.47610  -0.46399  -0.46191  -0.44324
 Alpha  occ. eigenvalues --   -0.42996  -0.41384  -0.39719  -0.38169  -0.37785
 Alpha  occ. eigenvalues --   -0.36875  -0.36460  -0.33754  -0.31205  -0.30759
 Alpha  occ. eigenvalues --   -0.29312  -0.27703  -0.25777
 Alpha virt. eigenvalues --    0.00443   0.01612   0.02188   0.02615   0.04252
 Alpha virt. eigenvalues --    0.04418   0.05150   0.05767   0.05839   0.08504
 Alpha virt. eigenvalues --    0.08915   0.09415   0.10041   0.10888   0.11914

 Mulliken atomic charges:
              1
     1  C   -0.127143
     2  C    0.283957
     3  C    0.016799
     4  C    0.153480
     5  C    0.038798
     6  C   -0.111555
     7  O   -0.435681
     8  O   -0.415941
     9  O   -0.632894
    10  O   -0.656382
    11  O   -0.564686
    12  H    0.177264
    13  H    0.163014
    14  H    0.180333
    15  H    0.173124
    16  H    0.158248
    17  H    0.175385
    18  H    0.423786
    19  H    0.422795
    20  H    0.399514
    21  H    0.177786
 Sum of Mulliken atomic charges =   0.00000

 Dipole moment (field-independent basis, Debye):
    X=             -0.9317    Y=              0.3829    Z=             -2.8011  Tot=              2.9767
 Quadrupole moment (field-independent basis, Debye-Ang):
   XX=            -69.8501   YY=            -66.4786   ZZ=            -59.0295
   XY=             -3.9161   XZ=             10.0290   YZ=             -4.8731

 Normal termination of Gaussian 09 at Mon Apr 15 18:05:56 2019.
