 Gaussian 09, Revision C.01,
 Gaussian 09:  EM64L-G09RevC.01 23-Sep-2011

 -----------------------------------------------------------
 # B3LYP/6-31+G** test scrf=(pcm,solvent=water,smd,dovacuum)
 -----------------------------------------------------------

 99/5=1,9=1/99;
 -------
 comment
 -------
 Charge =  0 Multiplicity = 1

                         Standard orientation:
 ---------------------------------------------------------------------
 Center     Atomic      Atomic             Coordinates (Angstroms)
 Number     Number       Type             X           Y           Z
 ---------------------------------------------------------------------
      1          6           0       -0.591455    1.772526    0.489072
      2          6           0       -0.532449    1.031034   -0.854614
      3          6           0        1.397717    0.663239    0.191557
      4          6           0       -0.276495   -1.257180    0.263676
      5          6           0        1.210586   -0.850532    0.388651
      6          6           0       -1.023306   -0.423100   -0.816047
      7          8           0        0.889160    0.993722   -1.099678
      8          8           0        0.660886    1.437566    1.117636
      9          8           0       -2.427367   -0.417318   -0.539949
     10          8           0       -0.904996   -1.084807    1.527772
     11          8           0        2.018185   -1.532204   -0.567812
     12          1           0       -1.421314    1.453230    1.121786
     13          1           0       -0.636175    2.856854    0.341476
     14          1           0       -1.010222    1.578059   -1.669224
     15          1           0        2.454910    0.940551    0.227500
     16          1           0       -0.301079   -2.318786   -0.027808
     17          1           0        1.569454   -1.153310    1.376865
     18          1           0       -2.820387   -1.211479   -0.937079
     19          1           0       -1.853284   -0.983120    1.318640
     20          1           0        1.852959   -1.100327   -1.424345
     21          1           0       -0.829393   -0.853260   -1.805328
 ---------------------------------------------------------------------

 SCF Done:  E(RB3LYP) =  -610.806638116     A.U. after   12 cycles

 The electronic state is 1-A.
 Alpha  occ. eigenvalues --  -19.18564 -19.17784 -19.17692 -19.17161 -19.16289
 Alpha  occ. eigenvalues --  -10.29417 -10.25055 -10.24895 -10.24602 -10.24357
 Alpha  occ. eigenvalues --  -10.23845  -1.11274  -1.05374  -1.03977  -1.02349
 Alpha  occ. eigenvalues --   -1.01250  -0.79306  -0.77484  -0.68233  -0.65908
 Alpha  occ. eigenvalues --   -0.62643  -0.58021  -0.55316  -0.53577  -0.53058
 Alpha  occ. eigenvalues --   -0.49918  -0.47634  -0.46954  -0.46143  -0.44115
 Alpha  occ. eigenvalues --   -0.42970  -0.42155  -0.40676  -0.37873  -0.37761
 Alpha  occ. eigenvalues --   -0.36634  -0.35388  -0.34161  -0.32219  -0.30044
 Alpha  occ. eigenvalues --   -0.29510  -0.27797  -0.26099
 Alpha virt. eigenvalues --    0.00373   0.01322   0.02327   0.03069   0.04222
 Alpha virt. eigenvalues --    0.04645   0.05248   0.05559   0.05857   0.08491
 Alpha virt. eigenvalues --    0.09078   0.09595   0.09933   0.10958   0.11865

 Mulliken atomic charges:
              1
     1  C   -0.138082
     2  C    0.234143
     3  C    0.051779
     4  C    0.157059
     5  C    0.068554
     6  C   -0.131293
     7  O   -0.427964
     8  O   -0.414915
     9  O   -0.660664
    10  O   -0.621135
    11  O   -0.567315
    12  H    0.177496
    13  H    0.164473
    14  H    0.182904
    15  H    0.173011
    16  H    0.152229
    17  H    0.175998
    18  H    0.431142
    19  H    0.412615
    20  H    0.398560
    21  H    0.181405
 Sum of Mulliken atomic charges =   0.00000

 Dipole moment (field-independent basis, Debye):
    X=             -3.9529    Y=             -0.6522    Z=             -4.2747  Tot=              5.8587
 Quadrupole moment (field-independent basis, Debye-Ang):
   XX=            -63.2010   YY=            -65.7894   ZZ=            -68.0018
   XY=              6.0347   XZ=              3.6810   YZ=              2.9815

 Normal termination of Gaussian 09 at Mon Apr 15 17:57:24 2019.
