 Gaussian 09, Revision C.01,
 Gaussian 09:  EM64L-G09RevC.01 23-Sep-2011

 -----------------------------------------------------------
 # B3LYP/6-31+G** test scrf=(pcm,solvent=water,smd,dovacuum)
 -----------------------------------------------------------

 99/5=1,9=1/99;
 -------
 comment
 -------
 Charge =  0 Multiplicity = 1

                         Standard orientation:
 ---------------------------------------------------------------------
 Center     Atomic      Atomic             Coordinates (Angstroms)
 Number     Number       Type             X           Y           Z
 ---------------------------------------------------------------------
      1          6           0       -0.887300    1.691285    0.407095
      2          6           0       -0.620398    0.966973   -0.907156
      3          6           0        1.256177    0.817078    0.296035
      4          6           0       -0.109813   -1.283186    0.230167
      5          6           0        1.319829   -0.715752    0.388170
      6          6           0       -0.916218   -0.550346   -0.880405
      7          8           0        0.813232    1.147980   -1.011103
      8          8           0        0.267384    1.328624    1.205947
      9          8           0       -2.300561   -0.804897   -0.719525
     10          8           0       -0.831637   -1.221145    1.469463
     11          8           0        2.209130   -1.208117   -0.603467
     12          1           0       -1.795294    1.366740    0.918655
     13          1           0       -0.910940    2.776774    0.269731
     14          1           0       -1.088867    1.443975   -1.769371
     15          1           0        2.222293    1.296911    0.469884
     16          1           0       -0.044621   -2.345325   -0.021686
     17          1           0        1.717080   -1.033435    1.357254
     18          1           0       -2.410814   -0.966529    0.238394
     19          1           0       -0.597338   -0.366791    1.879542
     20          1           0        2.006957   -0.718904   -1.420885
     21          1           0       -0.612493   -0.949295   -1.855488
 ---------------------------------------------------------------------

 SCF Done:  E(RB3LYP) =  -610.807620612     A.U. after   12 cycles

 The electronic state is 1-A.
 Alpha  occ. eigenvalues --  -19.18913 -19.18485 -19.17382 -19.17265 -19.16786
 Alpha  occ. eigenvalues --  -10.29816 -10.24999 -10.24974 -10.24842 -10.24616
 Alpha  occ. eigenvalues --  -10.24206  -1.11567  -1.05353  -1.04254  -1.02684
 Alpha  occ. eigenvalues --   -1.01281  -0.79371  -0.77662  -0.68270  -0.66211
 Alpha  occ. eigenvalues --   -0.62785  -0.59362  -0.56731  -0.52737  -0.51489
 Alpha  occ. eigenvalues --   -0.50153  -0.48179  -0.47957  -0.44960  -0.44755
 Alpha  occ. eigenvalues --   -0.43653  -0.41523  -0.41249  -0.39185  -0.37008
 Alpha  occ. eigenvalues --   -0.36603  -0.35834  -0.34349  -0.32619  -0.31913
 Alpha  occ. eigenvalues --   -0.29120  -0.27672  -0.26524
 Alpha virt. eigenvalues --    0.00730   0.01376   0.02649   0.02967   0.04116
 Alpha virt. eigenvalues --    0.04707   0.05208   0.05483   0.05712   0.08915
 Alpha virt. eigenvalues --    0.09232   0.09531   0.10204   0.10772   0.11562

 Mulliken atomic charges:
              1
     1  C   -0.133498
     2  C    0.280721
     3  C    0.093507
     4  C    0.097900
     5  C    0.017733
     6  C   -0.136586
     7  O   -0.438486
     8  O   -0.483088
     9  O   -0.595852
    10  O   -0.634324
    11  O   -0.558467
    12  H    0.186351
    13  H    0.171465
    14  H    0.183856
    15  H    0.176935
    16  H    0.171941
    17  H    0.185583
    18  H    0.408003
    19  H    0.430910
    20  H    0.400071
    21  H    0.175326
 Sum of Mulliken atomic charges =   0.00000

 Dipole moment (field-independent basis, Debye):
    X=             -0.1985    Y=              2.7309    Z=             -0.0519  Tot=              2.7386
 Quadrupole moment (field-independent basis, Debye-Ang):
   XX=            -73.2561   YY=            -68.7365   ZZ=            -65.3287
   XY=             -2.7301   XZ=             -1.4193   YZ=              0.5004

 Normal termination of Gaussian 09 at Mon Apr 15 18:02:27 2019.
