 Gaussian 09, Revision C.01,
 Gaussian 09:  EM64L-G09RevC.01 23-Sep-2011

 ------------------------------------------------
 # mpw1pw91/6-31+g** nmr scrf=(pcm,solvent=water)
 ------------------------------------------------

 99/9=1/99;
 -------
 comment
 -------
 Charge =  0 Multiplicity = 1

                         Standard orientation:
 ---------------------------------------------------------------------
 Center     Atomic      Atomic             Coordinates (Angstroms)
 Number     Number       Type             X           Y           Z
 ---------------------------------------------------------------------
      1          6           0       -0.600400    1.751013    0.530950
      2          6           0       -0.572706    1.024119   -0.819176
      3          6           0        1.393767    0.675299    0.152342
      4          6           0       -0.286224   -1.245545    0.310271
      5          6           0        1.216404   -0.844005    0.331214
      6          6           0       -1.037972   -0.446188   -0.773630
      7          8           0        0.842646    1.020518   -1.115586
      8          8           0        0.681703    1.430856    1.112859
      9          8           0       -2.435401   -0.566231   -0.556096
     10          8           0       -0.912910   -1.008633    1.567213
     11          8           0        1.950200   -1.510775   -0.692020
     12          1           0       -1.401842    1.398308    1.181199
     13          1           0       -0.667213    2.836577    0.402151
     14          1           0       -1.084839    1.569793   -1.615274
     15          1           0        2.450331    0.957438    0.159818
     16          1           0       -0.338440   -2.314487    0.057820
     17          1           0        1.652770   -1.163990    1.284099
     18          1           0       -2.880708   -0.271297   -1.366813
     19          1           0       -0.416413   -1.507218    2.235928
     20          1           0        1.757313   -1.034687   -1.519056
     21          1           0       -0.758081   -0.884471   -1.742648
 ---------------------------------------------------------------------

 SCF Done:  E(RmPW1PW91) =  -610.643816013     A.U. after   12 cycles

      1  C    Isotropic =   130.7189   Anisotropy =    65.0662

      2  C    Isotropic =   117.9527   Anisotropy =    57.9320

      3  C    Isotropic =    92.9640   Anisotropy =    35.5556

      4  C    Isotropic =   121.6204   Anisotropy =    44.8486

      5  C    Isotropic =   120.3572   Anisotropy =    35.6619

      6  C    Isotropic =   127.9599   Anisotropy =    50.2723

      7  O    Isotropic =   238.4222   Anisotropy =    46.5742

      8  O    Isotropic =   265.7192   Anisotropy =   104.8768

      9  O    Isotropic =   302.3235   Anisotropy =    55.7937

     10  O    Isotropic =   295.0178   Anisotropy =    61.0174

     11  O    Isotropic =   288.6474   Anisotropy =    26.8052

     12  H    Isotropic =    26.9184   Anisotropy =     5.0522

     13  H    Isotropic =    27.7367   Anisotropy =    11.1497

     14  H    Isotropic =    27.3151   Anisotropy =     7.3030

     15  H    Isotropic =    26.1701   Anisotropy =     7.7080

     16  H    Isotropic =    27.2935   Anisotropy =     6.3907

     17  H    Isotropic =    28.1484   Anisotropy =     5.2662

     18  H    Isotropic =    29.8801   Anisotropy =    19.9630

     19  H    Isotropic =    30.4544   Anisotropy =    18.6485

     20  H    Isotropic =    29.6561   Anisotropy =    13.5368

     21  H    Isotropic =    27.5222   Anisotropy =     4.2813

 The electronic state is 1-A.
 Alpha  occ. eigenvalues --  -19.28133 -19.26807 -19.26605 -19.26556 -19.25959
 Alpha  occ. eigenvalues --  -10.35954 -10.31687 -10.31665 -10.31445 -10.31370
 Alpha  occ. eigenvalues --  -10.30208  -1.14403  -1.08036  -1.07099  -1.05878
 Alpha  occ. eigenvalues --   -1.04027  -0.82099  -0.80490  -0.70965  -0.68092
 Alpha  occ. eigenvalues --   -0.65240  -0.60208  -0.57810  -0.56312  -0.54618
 Alpha  occ. eigenvalues --   -0.51759  -0.49684  -0.48431  -0.47983  -0.46202
 Alpha  occ. eigenvalues --   -0.44838  -0.43153  -0.41379  -0.39852  -0.39411
 Alpha  occ. eigenvalues --   -0.38384  -0.37757  -0.35347  -0.32728  -0.32285
 Alpha  occ. eigenvalues --   -0.30671  -0.29117  -0.27077
 Alpha virt. eigenvalues --    0.00328   0.01568   0.01974   0.02440   0.04073
 Alpha virt. eigenvalues --    0.04333   0.04946   0.05574   0.05743   0.08339
 Alpha virt. eigenvalues --    0.08770   0.09230   0.09841   0.10731   0.11784

 Mulliken atomic charges:
              1
     1  C   -0.175272
     2  C    0.250997
     3  C   -0.117567
     4  C    0.069797
     5  C    0.043033
     6  C   -0.184640
     7  O   -0.376654
     8  O   -0.334648
     9  O   -0.559490
    10  O   -0.578806
    11  O   -0.497605
    12  H    0.193191
    13  H    0.172816
    14  H    0.193897
    15  H    0.188886
    16  H    0.177509
    17  H    0.181868
    18  H    0.396178
    19  H    0.392572
    20  H    0.378206
    21  H    0.185732
 Sum of Mulliken atomic charges =   0.00000

 Dipole moment (field-independent basis, Debye):
    X=             -0.9915    Y=              0.4184    Z=             -2.3812  Tot=              2.6131
 Quadrupole moment (field-independent basis, Debye-Ang):
   XX=            -68.5704   YY=            -65.8557   ZZ=            -58.9273
   XY=             -3.5410   XZ=              9.0881   YZ=             -4.4799

 Normal termination of Gaussian 09 at Fri Apr 12 10:56:21 2019.
