 Gaussian 09, Revision C.01,
 Gaussian 09:  EM64L-G09RevC.01 23-Sep-2011

 ------------------------------------------------
 # mpw1pw91/6-31+g** nmr scrf=(pcm,solvent=water)
 ------------------------------------------------

 99/9=1/99;
 -------
 comment
 -------
 Charge =  0 Multiplicity = 1

                         Standard orientation:
 ---------------------------------------------------------------------
 Center     Atomic      Atomic             Coordinates (Angstroms)
 Number     Number       Type             X           Y           Z
 ---------------------------------------------------------------------
      1          6           0       -0.696135    1.704650    0.590547
      2          6           0       -0.681391    1.015875   -0.781029
      3          6           0        1.343998    0.780196    0.076443
      4          6           0       -0.197470   -1.251713    0.282336
      5          6           0        1.273622   -0.741394    0.289101
      6          6           0       -1.026054   -0.487213   -0.767382
      7          8           0        0.709973    1.128324   -1.139839
      8          8           0        0.633011    1.463088    1.100161
      9          8           0       -2.406392   -0.729568   -0.533738
     10          8           0       -0.816278   -1.094853    1.555316
     11          8           0        2.035581   -1.321819   -0.764735
     12          1           0       -1.436753    1.281124    1.269745
     13          1           0       -0.846535    2.785492    0.493637
     14          1           0       -1.272173    1.541452   -1.535488
     15          1           0        2.380224    1.127369    0.042554
     16          1           0       -0.184038   -2.317562    0.004955
     17          1           0        1.717297   -0.975315    1.268844
     18          1           0       -2.887558   -0.435957   -1.324236
     19          1           0       -0.262626   -1.556359    2.205453
     20          1           0        2.165487   -2.260169   -0.553575
     21          1           0       -0.719904   -0.873865   -1.749306
 ---------------------------------------------------------------------

 SCF Done:  E(RmPW1PW91) =  -610.642436593     A.U. after   12 cycles

      1  C    Isotropic =   131.2526   Anisotropy =    63.3903

      2  C    Isotropic =   118.0305   Anisotropy =    56.8920

      3  C    Isotropic =    93.2703   Anisotropy =    34.0226

      4  C    Isotropic =   120.8842   Anisotropy =    43.6775

      5  C    Isotropic =   119.4143   Anisotropy =    34.7363

      6  C    Isotropic =   127.3523   Anisotropy =    49.7272

      7  O    Isotropic =   235.4363   Anisotropy =    51.4725

      8  O    Isotropic =   263.4573   Anisotropy =   111.0222

      9  O    Isotropic =   302.4275   Anisotropy =    57.9535

     10  O    Isotropic =   293.6596   Anisotropy =    62.0050

     11  O    Isotropic =   291.6010   Anisotropy =    61.8195

     12  H    Isotropic =    26.9477   Anisotropy =     4.9536

     13  H    Isotropic =    27.8106   Anisotropy =    11.2250

     14  H    Isotropic =    27.3107   Anisotropy =     7.1952

     15  H    Isotropic =    26.1194   Anisotropy =     7.5146

     16  H    Isotropic =    27.4606   Anisotropy =     6.4146

     17  H    Isotropic =    27.9791   Anisotropy =     4.4661

     18  H    Isotropic =    29.9495   Anisotropy =    19.8472

     19  H    Isotropic =    30.4868   Anisotropy =    18.4075

     20  H    Isotropic =    29.8774   Anisotropy =    19.4406

     21  H    Isotropic =    27.4112   Anisotropy =     4.2791

 The electronic state is 1-A.
 Alpha  occ. eigenvalues --  -19.27413 -19.26604 -19.26484 -19.26420 -19.25936
 Alpha  occ. eigenvalues --  -10.35683 -10.31508 -10.31431 -10.31361 -10.31335
 Alpha  occ. eigenvalues --  -10.29966  -1.14033  -1.07934  -1.07031  -1.05754
 Alpha  occ. eigenvalues --   -1.03674  -0.81804  -0.80610  -0.70767  -0.67913
 Alpha  occ. eigenvalues --   -0.64602  -0.60365  -0.56640  -0.55991  -0.54335
 Alpha  occ. eigenvalues --   -0.53356  -0.49561  -0.48515  -0.46064  -0.46028
 Alpha  occ. eigenvalues --   -0.45069  -0.42961  -0.42353  -0.40304  -0.38793
 Alpha  occ. eigenvalues --   -0.37561  -0.36835  -0.35586  -0.32443  -0.31748
 Alpha  occ. eigenvalues --   -0.30078  -0.28887  -0.27295
 Alpha virt. eigenvalues --    0.00298   0.01287   0.02167   0.02370   0.03868
 Alpha virt. eigenvalues --    0.04304   0.04947   0.05611   0.06103   0.07991
 Alpha virt. eigenvalues --    0.08762   0.09285   0.09724   0.10790   0.11980

 Mulliken atomic charges:
              1
     1  C   -0.160650
     2  C    0.244441
     3  C   -0.108016
     4  C    0.082555
     5  C    0.026210
     6  C   -0.163347
     7  O   -0.335951
     8  O   -0.337657
     9  O   -0.560406
    10  O   -0.579236
    11  O   -0.544216
    12  H    0.190972
    13  H    0.169790
    14  H    0.189572
    15  H    0.182021
    16  H    0.163914
    17  H    0.174816
    18  H    0.394833
    19  H    0.392069
    20  H    0.392535
    21  H    0.185751
 Sum of Mulliken atomic charges =   0.00000

 Dipole moment (field-independent basis, Debye):
    X=             -0.1576    Y=             -2.4189    Z=             -0.5331  Tot=              2.4819
 Quadrupole moment (field-independent basis, Debye-Ang):
   XX=            -65.0088   YY=            -57.5247   ZZ=            -64.4615
   XY=            -10.9896   XZ=             12.0214   YZ=             -3.7068

 Normal termination of Gaussian 09 at Fri Apr 12 11:04:37 2019.
