 Gaussian 09, Revision C.01,
 Gaussian 09:  EM64L-G09RevC.01 23-Sep-2011

 ------------------------------------------------
 # mpw1pw91/6-31+g** nmr scrf=(pcm,solvent=water)
 ------------------------------------------------

 99/9=1/99;
 -------
 comment
 -------
 Charge =  0 Multiplicity = 1

                         Standard orientation:
 ---------------------------------------------------------------------
 Center     Atomic      Atomic             Coordinates (Angstroms)
 Number     Number       Type             X           Y           Z
 ---------------------------------------------------------------------
      1          6           0       -0.645720    1.739203    0.553657
      2          6           0       -0.614974    1.043347   -0.816937
      3          6           0        1.370391    0.728863    0.116663
      4          6           0       -0.220621   -1.260524    0.227225
      5          6           0        1.244100   -0.789664    0.349000
      6          6           0       -1.029420   -0.433832   -0.811348
      7          8           0        0.789105    1.081067   -1.126237
      8          8           0        0.654062    1.455556    1.106659
      9          8           0       -2.426399   -0.511360   -0.506983
     10          8           0       -0.834469   -1.161155    1.506242
     11          8           0        1.990507   -1.506081   -0.631479
     12          1           0       -1.423032    1.355257    1.216540
     13          1           0       -0.756889    2.823416    0.443803
     14          1           0       -1.158013    1.591167   -1.589363
     15          1           0        2.416722    1.052111    0.111883
     16          1           0       -0.197186   -2.312188   -0.097726
     17          1           0        1.590751   -1.025892    1.364649
     18          1           0       -2.785891   -1.311256   -0.923642
     19          1           0       -1.789428   -1.095957    1.312875
     20          1           0        2.928218   -1.281012   -0.519071
     21          1           0       -0.830238   -0.824214   -1.815128
 ---------------------------------------------------------------------

 SCF Done:  E(RmPW1PW91) =  -610.646627610     A.U. after   12 cycles

      1  C    Isotropic =   131.4502   Anisotropy =    64.6789

      2  C    Isotropic =   120.1735   Anisotropy =    58.8654

      3  C    Isotropic =    91.7156   Anisotropy =    31.9292

      4  C    Isotropic =   123.7718   Anisotropy =    41.7386

      5  C    Isotropic =   121.9023   Anisotropy =    38.1026

      6  C    Isotropic =   128.0486   Anisotropy =    51.1010

      7  O    Isotropic =   237.9982   Anisotropy =    53.6948

      8  O    Isotropic =   264.4668   Anisotropy =   110.1747

      9  O    Isotropic =   311.7939   Anisotropy =    83.0465

     10  O    Isotropic =   308.8328   Anisotropy =    47.3940

     11  O    Isotropic =   294.9340   Anisotropy =    70.2383

     12  H    Isotropic =    27.2554   Anisotropy =     4.8082

     13  H    Isotropic =    27.8173   Anisotropy =    11.2210

     14  H    Isotropic =    27.1028   Anisotropy =     7.6070

     15  H    Isotropic =    26.2735   Anisotropy =     7.4714

     16  H    Isotropic =    27.6061   Anisotropy =     7.1839

     17  H    Isotropic =    27.6866   Anisotropy =     4.7710

     18  H    Isotropic =    29.7583   Anisotropy =    22.4892

     19  H    Isotropic =    28.1154   Anisotropy =    17.0371

     20  H    Isotropic =    30.1357   Anisotropy =    19.8128

     21  H    Isotropic =    27.3913   Anisotropy =     4.9814

 The electronic state is 1-A.
 Alpha  occ. eigenvalues --  -19.27706 -19.27590 -19.26650 -19.26497 -19.25439
 Alpha  occ. eigenvalues --  -10.35720 -10.31752 -10.31677 -10.31244 -10.31184
 Alpha  occ. eigenvalues --  -10.30309  -1.14188  -1.08841  -1.07033  -1.05370
 Alpha  occ. eigenvalues --   -1.03912  -0.82095  -0.80538  -0.70700  -0.68405
 Alpha  occ. eigenvalues --   -0.64781  -0.59814  -0.56828  -0.56256  -0.55356
 Alpha  occ. eigenvalues --   -0.52262  -0.51006  -0.47753  -0.46796  -0.46090
 Alpha  occ. eigenvalues --   -0.45605  -0.43935  -0.41960  -0.39644  -0.39303
 Alpha  occ. eigenvalues --   -0.37455  -0.36654  -0.35808  -0.33271  -0.31894
 Alpha  occ. eigenvalues --   -0.30839  -0.29042  -0.27181
 Alpha virt. eigenvalues --    0.00237   0.01094   0.02234   0.02865   0.03884
 Alpha virt. eigenvalues --    0.04194   0.05173   0.05503   0.05931   0.08345
 Alpha virt. eigenvalues --    0.08756   0.09519   0.09723   0.10862   0.11805

 Mulliken atomic charges:
              1
     1  C   -0.163223
     2  C    0.217072
     3  C   -0.131444
     4  C    0.066648
     5  C    0.113591
     6  C   -0.203903
     7  O   -0.320769
     8  O   -0.336278
     9  O   -0.612719
    10  O   -0.550821
    11  O   -0.545205
    12  H    0.182973
    13  H    0.173278
    14  H    0.195056
    15  H    0.180954
    16  H    0.167524
    17  H    0.181619
    18  H    0.411966
    19  H    0.392578
    20  H    0.389093
    21  H    0.192010
 Sum of Mulliken atomic charges =   0.00000

 Dipole moment (field-independent basis, Debye):
    X=             -1.3164    Y=             -1.0258    Z=             -2.0763  Tot=              2.6639
 Quadrupole moment (field-independent basis, Debye-Ang):
   XX=            -51.3670   YY=            -64.7558   ZZ=            -71.5278
   XY=              2.0124   XZ=              5.1382   YZ=              1.5735

 Normal termination of Gaussian 09 at Fri Apr 12 10:40:30 2019.
