 Gaussian 09, Revision C.01,
 Gaussian 09:  EM64L-G09RevC.01 23-Sep-2011

 -----------------------------------------------------------
 # B3LYP/6-31+G** test scrf=(pcm,solvent=water,smd,dovacuum)
 -----------------------------------------------------------

 99/5=1,9=1/99;
 -------
 comment
 -------
 Charge =  0 Multiplicity = 1

                         Standard orientation:
 ---------------------------------------------------------------------
 Center     Atomic      Atomic             Coordinates (Angstroms)
 Number     Number       Type             X           Y           Z
 ---------------------------------------------------------------------
      1          6           0       -0.665127    1.731138    0.556473
      2          6           0       -0.626056    1.038065   -0.815088
      3          6           0        1.364475    0.747379    0.118408
      4          6           0       -0.205431   -1.260515    0.228051
      5          6           0        1.258203   -0.768105    0.344431
      6          6           0       -1.022555   -0.444318   -0.811832
      7          8           0        0.777454    1.094639   -1.124239
      8          8           0        0.637413    1.459440    1.109055
      9          8           0       -2.419337   -0.538336   -0.511291
     10          8           0       -0.821287   -1.168932    1.506724
     11          8           0        2.088300   -1.367189   -0.647111
     12          1           0       -1.438377    1.337926    1.218633
     13          1           0       -0.787521    2.814360    0.448978
     14          1           0       -1.175807    1.580217   -1.586758
     15          1           0        2.408175    1.072720    0.113004
     16          1           0       -0.178337   -2.314172   -0.096536
     17          1           0        1.614771   -0.999872    1.357255
     18          1           0       -2.767662   -1.343731   -0.926894
     19          1           0       -1.776997   -1.112305    1.314044
     20          1           0        2.195575   -2.303083   -0.414128
     21          1           0       -0.815221   -0.830899   -1.815355
 ---------------------------------------------------------------------

 SCF Done:  E(RB3LYP) =  -610.806344473     A.U. after   12 cycles

 The electronic state is 1-A.
 Alpha  occ. eigenvalues --  -19.18304 -19.17767 -19.17503 -19.17107 -19.16278
 Alpha  occ. eigenvalues --  -10.29327 -10.24930 -10.24823 -10.24645 -10.24403
 Alpha  occ. eigenvalues --  -10.23738  -1.11190  -1.05363  -1.03846  -1.02283
 Alpha  occ. eigenvalues --   -1.01181  -0.79261  -0.77629  -0.68054  -0.65994
 Alpha  occ. eigenvalues --   -0.62313  -0.58158  -0.54636  -0.53916  -0.51631
 Alpha  occ. eigenvalues --   -0.50186  -0.49282  -0.47351  -0.44729  -0.44264
 Alpha  occ. eigenvalues --   -0.43671  -0.42119  -0.40285  -0.38325  -0.37480
 Alpha  occ. eigenvalues --   -0.35691  -0.35540  -0.34098  -0.32233  -0.29948
 Alpha  occ. eigenvalues --   -0.28809  -0.27845  -0.26303
 Alpha virt. eigenvalues --    0.00388   0.01290   0.02166   0.03007   0.03910
 Alpha virt. eigenvalues --    0.04656   0.05477   0.05518   0.06173   0.08268
 Alpha virt. eigenvalues --    0.08880   0.09603   0.09881   0.10964   0.12112

 Mulliken atomic charges:
              1
     1  C   -0.117233
     2  C    0.222088
     3  C    0.052043
     4  C    0.165256
     5  C    0.075508
     6  C   -0.126401
     7  O   -0.406944
     8  O   -0.419116
     9  O   -0.659873
    10  O   -0.620645
    11  O   -0.614392
    12  H    0.176424
    13  H    0.162939
    14  H    0.181084
    15  H    0.169191
    16  H    0.147980
    17  H    0.171821
    18  H    0.431022
    19  H    0.411759
    20  H    0.417425
    21  H    0.180062
 Sum of Mulliken atomic charges =   0.00000

 Dipole moment (field-independent basis, Debye):
    X=             -3.2386    Y=             -3.8291    Z=             -1.9991  Tot=              5.3988
 Quadrupole moment (field-independent basis, Debye-Ang):
   XX=            -61.1109   YY=            -55.3061   ZZ=            -73.0560
   XY=             -1.3532   XZ=              7.2371   YZ=              2.5172

 Normal termination of Gaussian 09 at Mon Apr 15 17:59:21 2019.
