 Gaussian 09, Revision C.01,
 Gaussian 09:  EM64L-G09RevC.01 23-Sep-2011

 ------------------------------------------------
 # mpw1pw91/6-31+g** nmr scrf=(pcm,solvent=water)
 ------------------------------------------------

 99/9=1/99;
 -------
 comment
 -------
 Charge =  0 Multiplicity = 1

                         Standard orientation:
 ---------------------------------------------------------------------
 Center     Atomic      Atomic             Coordinates (Angstroms)
 Number     Number       Type             X           Y           Z
 ---------------------------------------------------------------------
      1          6           0       -2.157823    0.120345   -0.441771
      2          6           0       -1.342232    0.442528    0.811260
      3          6           0       -0.476963   -1.408170   -0.047565
      4          6           0        1.181800    0.430342    0.415900
      5          6           0        0.930503   -0.856025   -0.391360
      6          6           0       -0.078010    1.317503    0.533319
      7          8           0       -0.920058   -0.883990    1.194114
      8          8           0       -1.428852   -0.975965   -1.021224
      9          8           0       -0.161438    2.059273   -0.690635
     10          8           0        2.264747    1.191728   -0.090968
     11          8           0        1.957960   -1.771643   -0.016823
     12          1           0       -2.206556    0.941566   -1.157006
     13          1           0       -3.169542   -0.204432   -0.171311
     14          1           0       -1.943007    0.845308    1.627557
     15          1           0       -0.476247   -2.500798    0.017653
     16          1           0        1.460868    0.105266    1.422524
     17          1           0        0.969028   -0.641382   -1.466962
     18          1           0       -0.564734    2.921233   -0.506195
     19          1           0        1.858405    1.787398   -0.748593
     20          1           0        1.952708   -2.501728   -0.656627
     21          1           0        0.076551    2.013200    1.364544
 ---------------------------------------------------------------------

 SCF Done:  E(RmPW1PW91) =  -610.643018556     A.U. after   12 cycles

      1  C    Isotropic =   132.9089   Anisotropy =    63.1070

      2  C    Isotropic =   118.8878   Anisotropy =    52.4741

      3  C    Isotropic =    88.7762   Anisotropy =    24.5583

      4  C    Isotropic =   126.0242   Anisotropy =    37.1555

      5  C    Isotropic =   117.4636   Anisotropy =    26.7352

      6  C    Isotropic =   126.7623   Anisotropy =    40.1082

      7  O    Isotropic =   247.0782   Anisotropy =    59.5527

      8  O    Isotropic =   258.0274   Anisotropy =   118.5171

      9  O    Isotropic =   303.9665   Anisotropy =    22.3261

     10  O    Isotropic =   309.8456   Anisotropy =    27.3726

     11  O    Isotropic =   290.2091   Anisotropy =    57.2661

     12  H    Isotropic =    27.0066   Anisotropy =     6.0812

     13  H    Isotropic =    28.0899   Anisotropy =    11.8049

     14  H    Isotropic =    26.8429   Anisotropy =     7.9773

     15  H    Isotropic =    26.3576   Anisotropy =     6.6636

     16  H    Isotropic =    28.0410   Anisotropy =     3.6651

     17  H    Isotropic =    28.1885   Anisotropy =     3.6837

     18  H    Isotropic =    29.5370   Anisotropy =    22.0831

     19  H    Isotropic =    28.4198   Anisotropy =    16.4821

     20  H    Isotropic =    29.6485   Anisotropy =    19.4625

     21  H    Isotropic =    27.1478   Anisotropy =     7.5448

 The electronic state is 1-A.
 Alpha  occ. eigenvalues --  -19.27706 -19.27378 -19.26636 -19.26307 -19.25575
 Alpha  occ. eigenvalues --  -10.35668 -10.32016 -10.31835 -10.31084 -10.30792
 Alpha  occ. eigenvalues --  -10.30199  -1.14098  -1.08731  -1.06891  -1.05131
 Alpha  occ. eigenvalues --   -1.03913  -0.81750  -0.80755  -0.70722  -0.68012
 Alpha  occ. eigenvalues --   -0.64523  -0.60514  -0.57399  -0.55480  -0.54577
 Alpha  occ. eigenvalues --   -0.52178  -0.51814  -0.48687  -0.46768  -0.45413
 Alpha  occ. eigenvalues --   -0.44568  -0.43446  -0.41976  -0.39910  -0.38233
 Alpha  occ. eigenvalues --   -0.37532  -0.36130  -0.35528  -0.34877  -0.31765
 Alpha  occ. eigenvalues --   -0.30574  -0.29397  -0.27094
 Alpha virt. eigenvalues --    0.00160   0.01567   0.01814   0.02748   0.04025
 Alpha virt. eigenvalues --    0.04537   0.04796   0.05504   0.05766   0.08059
 Alpha virt. eigenvalues --    0.08359   0.08870   0.09732   0.10667   0.11503

 Mulliken atomic charges:
              1
     1  C   -0.205199
     2  C    0.233635
     3  C    0.003482
     4  C   -0.175371
     5  C    0.046850
     6  C    0.035858
     7  O   -0.334501
     8  O   -0.377019
     9  O   -0.627145
    10  O   -0.541586
    11  O   -0.552844
    12  H    0.188739
    13  H    0.171450
    14  H    0.195584
    15  H    0.180879
    16  H    0.194418
    17  H    0.184850
    18  H    0.412852
    19  H    0.386915
    20  H    0.389808
    21  H    0.188345
 Sum of Mulliken atomic charges =   0.00000

 Dipole moment (field-independent basis, Debye):
    X=             -4.1441    Y=              3.0449    Z=             -0.2518  Tot=              5.1486
 Quadrupole moment (field-independent basis, Debye-Ang):
   XX=            -73.0967   YY=            -50.8575   ZZ=            -66.4891
   XY=             -8.9096   XZ=             -5.3952   YZ=              5.1874

 Normal termination of Gaussian 09 at Fri Apr 12 10:58:29 2019.
