 Gaussian 09, Revision C.01,
 Gaussian 09:  EM64L-G09RevC.01 23-Sep-2011

 ------------------------------------------------
 # mpw1pw91/6-31+g** nmr scrf=(pcm,solvent=water)
 ------------------------------------------------

 99/9=1/99;
 -------
 comment
 -------
 Charge =  0 Multiplicity = 1

                         Standard orientation:
 ---------------------------------------------------------------------
 Center     Atomic      Atomic             Coordinates (Angstroms)
 Number     Number       Type             X           Y           Z
 ---------------------------------------------------------------------
      1          6           0       -0.591455    1.772526    0.489072
      2          6           0       -0.532449    1.031034   -0.854614
      3          6           0        1.397717    0.663239    0.191557
      4          6           0       -0.276495   -1.257180    0.263676
      5          6           0        1.210586   -0.850532    0.388651
      6          6           0       -1.023306   -0.423100   -0.816047
      7          8           0        0.889160    0.993722   -1.099678
      8          8           0        0.660886    1.437566    1.117636
      9          8           0       -2.427367   -0.417318   -0.539949
     10          8           0       -0.904996   -1.084807    1.527772
     11          8           0        2.018185   -1.532204   -0.567812
     12          1           0       -1.421314    1.453230    1.121786
     13          1           0       -0.636175    2.856854    0.341476
     14          1           0       -1.010222    1.578059   -1.669224
     15          1           0        2.454910    0.940551    0.227500
     16          1           0       -0.301079   -2.318786   -0.027808
     17          1           0        1.569454   -1.153310    1.376865
     18          1           0       -2.820387   -1.211479   -0.937079
     19          1           0       -1.853284   -0.983120    1.318640
     20          1           0        1.852959   -1.100327   -1.424345
     21          1           0       -0.829393   -0.853260   -1.805328
 ---------------------------------------------------------------------

 SCF Done:  E(RmPW1PW91) =  -610.648064627     A.U. after   12 cycles

      1  C    Isotropic =   131.0243   Anisotropy =    65.7868

      2  C    Isotropic =   120.0685   Anisotropy =    59.3400

      3  C    Isotropic =    92.2434   Anisotropy =    34.6507

      4  C    Isotropic =   122.9353   Anisotropy =    42.8926

      5  C    Isotropic =   123.0117   Anisotropy =    38.3074

      6  C    Isotropic =   128.6423   Anisotropy =    51.6315

      7  O    Isotropic =   239.7640   Anisotropy =    49.4019

      8  O    Isotropic =   266.9592   Anisotropy =   107.0363

      9  O    Isotropic =   311.9997   Anisotropy =    86.0265

     10  O    Isotropic =   308.6571   Anisotropy =    43.7205

     11  O    Isotropic =   291.0219   Anisotropy =    25.0490

     12  H    Isotropic =    27.2382   Anisotropy =     4.9308

     13  H    Isotropic =    27.7484   Anisotropy =    11.2121

     14  H    Isotropic =    27.1170   Anisotropy =     7.6759

     15  H    Isotropic =    26.1314   Anisotropy =     7.7053

     16  H    Isotropic =    27.6099   Anisotropy =     7.2577

     17  H    Isotropic =    27.8426   Anisotropy =     5.4766

     18  H    Isotropic =    29.7894   Anisotropy =    22.6258

     19  H    Isotropic =    28.1907   Anisotropy =    16.8376

     20  H    Isotropic =    29.6945   Anisotropy =    13.4932

     21  H    Isotropic =    27.4318   Anisotropy =     4.9608

 The electronic state is 1-A.
 Alpha  occ. eigenvalues --  -19.28211 -19.27830 -19.26900 -19.26482 -19.25495
 Alpha  occ. eigenvalues --  -10.35936 -10.32006 -10.31975 -10.31216 -10.31120
 Alpha  occ. eigenvalues --  -10.30513  -1.14508  -1.08934  -1.07111  -1.05485
 Alpha  occ. eigenvalues --   -1.04189  -0.82361  -0.80380  -0.71002  -0.68526
 Alpha  occ. eigenvalues --   -0.65135  -0.60296  -0.57583  -0.56123  -0.55121
 Alpha  occ. eigenvalues --   -0.52082  -0.49762  -0.49009  -0.48009  -0.46035
 Alpha  occ. eigenvalues --   -0.44742  -0.44127  -0.42408  -0.39574  -0.39297
 Alpha  occ. eigenvalues --   -0.38197  -0.37034  -0.35889  -0.33983  -0.31525
 Alpha  occ. eigenvalues --   -0.31040  -0.29283  -0.27430
 Alpha virt. eigenvalues --    0.00187   0.01252   0.02175   0.02878   0.04053
 Alpha virt. eigenvalues --    0.04590   0.05032   0.05411   0.05665   0.08323
 Alpha virt. eigenvalues --    0.08955   0.09469   0.09718   0.10749   0.11733

 Mulliken atomic charges:
              1
     1  C   -0.177472
     2  C    0.216575
     3  C   -0.081189
     4  C    0.054169
     5  C    0.073575
     6  C   -0.205039
     7  O   -0.369269
     8  O   -0.331999
     9  O   -0.613875
    10  O   -0.550460
    11  O   -0.498579
    12  H    0.184739
    13  H    0.175827
    14  H    0.198583
    15  H    0.188641
    16  H    0.171670
    17  H    0.189131
    18  H    0.412372
    19  H    0.392941
    20  H    0.376097
    21  H    0.193562
 Sum of Mulliken atomic charges =   0.00000

 Dipole moment (field-independent basis, Debye):
    X=             -3.6568    Y=             -0.4987    Z=             -3.7849  Tot=              5.2865
 Quadrupole moment (field-independent basis, Debye-Ang):
   XX=            -62.4714   YY=            -65.0878   ZZ=            -67.0476
   XY=              5.5231   XZ=              3.4955   YZ=              2.7123

 Normal termination of Gaussian 09 at Fri Apr 12 10:45:14 2019.
