 Gaussian 09, Revision C.01,
 Gaussian 09:  EM64L-G09RevC.01 23-Sep-2011

 -----------------------------------------------------------
 # B3LYP/6-31+G** test scrf=(pcm,solvent=water,smd,dovacuum)
 -----------------------------------------------------------

 99/5=1,9=1/99;
 -------
 comment
 -------
 Charge =  0 Multiplicity = 1

                         Standard orientation:
 ---------------------------------------------------------------------
 Center     Atomic      Atomic             Coordinates (Angstroms)
 Number     Number       Type             X           Y           Z
 ---------------------------------------------------------------------
      1          6           0       -2.163647    0.130957   -0.425835
      2          6           0       -1.335867    0.434941    0.823175
      3          6           0       -0.481579   -1.406310   -0.070429
      4          6           0        1.185429    0.424298    0.414471
      5          6           0        0.927199   -0.856896   -0.409235
      6          6           0       -0.073190    1.312987    0.543377
      7          8           0       -0.913175   -0.899138    1.183193
      8          8           0       -1.437422   -0.953554   -1.030447
      9          8           0       -0.160146    2.059179   -0.676949
     10          8           0        2.270209    1.185229   -0.087504
     11          8           0        1.947134   -1.828424   -0.194556
     12          1           0       -2.221692    0.963037   -1.127655
     13          1           0       -3.171658   -0.200712   -0.150039
     14          1           0       -1.927316    0.826749    1.651427
     15          1           0       -0.480159   -2.499795   -0.027957
     16          1           0        1.463259    0.103171    1.424557
     17          1           0        0.962874   -0.630354   -1.478261
     18          1           0       -0.560868    2.921348   -0.487884
     19          1           0        1.865798    1.785173   -0.742493
     20          1           0        1.981855   -2.019351    0.757897
     21          1           0        0.085030    2.004536    1.377369
 ---------------------------------------------------------------------

 SCF Done:  E(RB3LYP) =  -610.801695692     A.U. after   12 cycles

 The electronic state is 1-A.
 Alpha  occ. eigenvalues --  -19.18295 -19.17380 -19.17373 -19.17016 -19.16569
 Alpha  occ. eigenvalues --  -10.29212 -10.25051 -10.25010 -10.24464 -10.24176
 Alpha  occ. eigenvalues --  -10.23594  -1.10938  -1.05387  -1.03695  -1.02104
 Alpha  occ. eigenvalues --   -1.01067  -0.78806  -0.77684  -0.68016  -0.65521
 Alpha  occ. eigenvalues --   -0.62249  -0.58827  -0.55515  -0.53864  -0.51481
 Alpha  occ. eigenvalues --   -0.50113  -0.47749  -0.46984  -0.45995  -0.44213
 Alpha  occ. eigenvalues --   -0.42543  -0.41219  -0.40460  -0.37958  -0.37154
 Alpha  occ. eigenvalues --   -0.36121  -0.34610  -0.33828  -0.32863  -0.31113
 Alpha  occ. eigenvalues --   -0.29139  -0.27889  -0.25560
 Alpha virt. eigenvalues --    0.00282   0.01714   0.02258   0.02701   0.04054
 Alpha virt. eigenvalues --    0.04904   0.04956   0.05552   0.05753   0.08186
 Alpha virt. eigenvalues --    0.08316   0.09085   0.10123   0.10760   0.11490

 Mulliken atomic charges:
              1
     1  C   -0.140462
     2  C    0.257301
     3  C    0.122545
     4  C   -0.041051
     5  C    0.049235
     6  C    0.043071
     7  O   -0.415907
     8  O   -0.454990
     9  O   -0.670883
    10  O   -0.609957
    11  O   -0.596802
    12  H    0.176396
    13  H    0.161223
    14  H    0.180707
    15  H    0.172441
    16  H    0.177703
    17  H    0.177576
    18  H    0.432273
    19  H    0.405672
    20  H    0.400725
    21  H    0.173184
 Sum of Mulliken atomic charges =   0.00000

 Dipole moment (field-independent basis, Debye):
    X=             -4.4675    Y=              4.5940    Z=              3.3734  Tot=              7.2417
 Quadrupole moment (field-independent basis, Debye-Ang):
   XX=            -74.3332   YY=            -56.3277   ZZ=            -66.4929
   XY=             -7.1341   XZ=              1.2448   YZ=             -2.5524

 Normal termination of Gaussian 09 at Mon Apr 15 18:02:54 2019.
