 Gaussian 09, Revision C.01,
 Gaussian 09:  EM64L-G09RevC.01 23-Sep-2011

 -----------------------------------------------------------
 # B3LYP/6-31+G** test scrf=(pcm,solvent=water,smd,dovacuum)
 -----------------------------------------------------------

 99/5=1,9=1/99;
 -------
 comment
 -------
 Charge =  0 Multiplicity = 1

                         Standard orientation:
 ---------------------------------------------------------------------
 Center     Atomic      Atomic             Coordinates (Angstroms)
 Number     Number       Type             X           Y           Z
 ---------------------------------------------------------------------
      1          6           0       -0.684713    1.723302    0.580444
      2          6           0       -0.605232    1.072580   -0.807404
      3          6           0        1.355946    0.746479    0.172218
      4          6           0       -0.223806   -1.256357    0.174109
      5          6           0        1.243777   -0.777424    0.334058
      6          6           0       -1.007963   -0.414934   -0.862653
      7          8           0        0.809804    1.144047   -1.071380
      8          8           0        0.593488    1.412353    1.171154
      9          8           0       -2.403943   -0.595140   -0.697010
     10          8           0       -0.954446   -1.151786    1.404675
     11          8           0        2.080176   -1.340457   -0.673212
     12          1           0       -1.487702    1.321321    1.201627
     13          1           0       -0.788213    2.811423    0.505503
     14          1           0       -1.131375    1.637793   -1.579203
     15          1           0        2.398825    1.072060    0.215789
     16          1           0       -0.211620   -2.303457   -0.154895
     17          1           0        1.591781   -1.050840    1.339978
     18          1           0       -2.516617   -0.802316    0.250699
     19          1           0       -0.792930   -1.952102    1.927400
     20          1           0        2.206640   -2.279112   -0.461929
     21          1           0       -0.737475   -0.768783   -1.863420
 ---------------------------------------------------------------------

 SCF Done:  E(RB3LYP) =  -610.806561953     A.U. after   12 cycles

 The electronic state is 1-A.
 Alpha  occ. eigenvalues --  -19.18242 -19.17460 -19.17386 -19.17163 -19.16684
 Alpha  occ. eigenvalues --  -10.29304 -10.24943 -10.24663 -10.24621 -10.24489
 Alpha  occ. eigenvalues --  -10.23676  -1.11097  -1.05430  -1.03828  -1.02359
 Alpha  occ. eigenvalues --   -1.01076  -0.78985  -0.77800  -0.68008  -0.65930
 Alpha  occ. eigenvalues --   -0.61880  -0.58978  -0.55322  -0.53420  -0.52711
 Alpha  occ. eigenvalues --   -0.50122  -0.48023  -0.46558  -0.45279  -0.44696
 Alpha  occ. eigenvalues --   -0.42581  -0.41528  -0.40713  -0.39286  -0.36676
 Alpha  occ. eigenvalues --   -0.36033  -0.35786  -0.33743  -0.31746  -0.31528
 Alpha  occ. eigenvalues --   -0.28612  -0.27476  -0.26233
 Alpha virt. eigenvalues --    0.00417   0.01470   0.02260   0.02792   0.03921
 Alpha virt. eigenvalues --    0.04620   0.05422   0.05515   0.06177   0.08311
 Alpha virt. eigenvalues --    0.09068   0.09257   0.10030   0.10994   0.12213

 Mulliken atomic charges:
              1
     1  C   -0.128644
     2  C    0.290926
     3  C    0.025595
     4  C    0.158153
     5  C    0.085597
     6  C   -0.149472
     7  O   -0.409881
     8  O   -0.423843
     9  O   -0.606625
    10  O   -0.692533
    11  O   -0.613382
    12  H    0.176896
    13  H    0.162153
    14  H    0.178536
    15  H    0.168875
    16  H    0.167965
    17  H    0.172948
    18  H    0.407601
    19  H    0.435276
    20  H    0.419254
    21  H    0.174604
 Sum of Mulliken atomic charges =   0.00000

 Dipole moment (field-independent basis, Debye):
    X=              0.0905    Y=             -4.5940    Z=              2.8523  Tot=              5.4082
 Quadrupole moment (field-independent basis, Debye-Ang):
   XX=            -71.3222   YY=            -51.7086   ZZ=            -69.3501
   XY=             -7.5035   XZ=              0.3108   YZ=             -7.2613

 Normal termination of Gaussian 09 at Mon Apr 15 18:11:18 2019.
