 Gaussian 09, Revision C.01,
 Gaussian 09:  EM64L-G09RevC.01 23-Sep-2011

 -----------------------------------------------------------
 # B3LYP/6-31+G** test scrf=(pcm,solvent=water,smd,dovacuum)
 -----------------------------------------------------------

 99/5=1,9=1/99;
 -------
 comment
 -------
 Charge =  0 Multiplicity = 1

                         Standard orientation:
 ---------------------------------------------------------------------
 Center     Atomic      Atomic             Coordinates (Angstroms)
 Number     Number       Type             X           Y           Z
 ---------------------------------------------------------------------
      1          6           0       -0.601133    1.756740    0.512040
      2          6           0       -0.536700    1.037809   -0.841972
      3          6           0        1.395417    0.667665    0.194643
      4          6           0       -0.277666   -1.256154    0.258787
      5          6           0        1.209639   -0.849293    0.373813
      6          6           0       -1.018801   -0.425274   -0.817556
      7          8           0        0.886520    1.014245   -1.091472
      8          8           0        0.658640    1.428945    1.131488
      9          8           0       -2.407094   -0.538587   -0.519797
     10          8           0       -0.885536   -1.090273    1.535445
     11          8           0        2.007111   -1.518589   -0.599372
     12          1           0       -1.425837    1.409251    1.136412
     13          1           0       -0.661266    2.843093    0.386780
     14          1           0       -1.013970    1.597627   -1.649631
     15          1           0        2.452497    0.944766    0.234599
     16          1           0       -0.308355   -2.315435   -0.036256
     17          1           0        1.576382   -1.164390    1.355197
     18          1           0       -2.920916   -0.224903   -1.280754
     19          1           0       -1.845100   -1.121236    1.374337
     20          1           0        1.840546   -1.068404   -1.446326
     21          1           0       -0.795642   -0.855261   -1.803236
 ---------------------------------------------------------------------

 SCF Done:  E(RB3LYP) =  -610.806206398     A.U. after   12 cycles

 The electronic state is 1-A.
 Alpha  occ. eigenvalues --  -19.18554 -19.17666 -19.17594 -19.17173 -19.16504
 Alpha  occ. eigenvalues --  -10.29415 -10.24880 -10.24819 -10.24646 -10.24562
 Alpha  occ. eigenvalues --  -10.23752  -1.11225  -1.05374  -1.03992  -1.02488
 Alpha  occ. eigenvalues --   -1.01207  -0.79114  -0.77679  -0.68362  -0.65647
 Alpha  occ. eigenvalues --   -0.62931  -0.58083  -0.55535  -0.53916  -0.52310
 Alpha  occ. eigenvalues --   -0.50676  -0.47791  -0.46383  -0.45793  -0.44198
 Alpha  occ. eigenvalues --   -0.42980  -0.41136  -0.40735  -0.39035  -0.37391
 Alpha  occ. eigenvalues --   -0.36758  -0.36217  -0.33848  -0.31419  -0.30426
 Alpha  occ. eigenvalues --   -0.29478  -0.27689  -0.26111
 Alpha virt. eigenvalues --    0.00413   0.01341   0.02448   0.02988   0.04257
 Alpha virt. eigenvalues --    0.04484   0.05270   0.05547   0.05844   0.08491
 Alpha virt. eigenvalues --    0.09130   0.09569   0.09937   0.10968   0.11910

 Mulliken atomic charges:
              1
     1  C   -0.126348
     2  C    0.247224
     3  C    0.042324
     4  C    0.101670
     5  C    0.074536
     6  C   -0.092370
     7  O   -0.431916
     8  O   -0.415672
     9  O   -0.668230
    10  O   -0.621974
    11  O   -0.565034
    12  H    0.177333
    13  H    0.163152
    14  H    0.181861
    15  H    0.173511
    16  H    0.155891
    17  H    0.176223
    18  H    0.435738
    19  H    0.416457
    20  H    0.398827
    21  H    0.176797
 Sum of Mulliken atomic charges =   0.00000

 Dipole moment (field-independent basis, Debye):
    X=             -4.2765    Y=              1.5618    Z=             -4.8680  Tot=              6.6652
 Quadrupole moment (field-independent basis, Debye-Ang):
   XX=            -61.3320   YY=            -69.1497   ZZ=            -65.8918
   XY=             -0.8466   XZ=              6.1613   YZ=             -0.0730

 Normal termination of Gaussian 09 at Mon Apr 15 18:09:06 2019.
