 Gaussian 09, Revision C.01,
 Gaussian 09:  EM64L-G09RevC.01 23-Sep-2011

 -----------------------------------------------------------
 # B3LYP/6-31+G** test scrf=(pcm,solvent=water,smd,dovacuum)
 -----------------------------------------------------------

 99/5=1,9=1/99;
 -------
 comment
 -------
 Charge =  0 Multiplicity = 1

                         Standard orientation:
 ---------------------------------------------------------------------
 Center     Atomic      Atomic             Coordinates (Angstroms)
 Number     Number       Type             X           Y           Z
 ---------------------------------------------------------------------
      1          6           0       -2.139786    0.215106   -0.499930
      2          6           0       -1.341973    0.561627    0.763109
      3          6           0       -0.566231   -1.380070    0.027365
      4          6           0        1.160297    0.386768    0.454695
      5          6           0        0.848522   -0.869289   -0.360037
      6          6           0       -0.029314    1.362203    0.496742
      7          8           0       -0.998623   -0.762299    1.229317
      8          8           0       -1.512250   -0.994759   -0.967100
      9          8           0       -0.123155    2.080657   -0.727827
     10          8           0        2.268199    1.106334   -0.080923
     11          8           0        1.889604   -1.797142   -0.054327
     12          1           0       -2.082829    0.981708   -1.272326
     13          1           0       -3.186215    0.008131   -0.249043
     14          1           0       -1.950165    1.033314    1.535037
     15          1           0       -0.582927   -2.465250    0.163109
     16          1           0        1.377831    0.059019    1.478957
     17          1           0        0.846688   -0.627827   -1.429482
     18          1           0        0.801422    2.246764   -0.990382
     19          1           0        2.951664    0.448070   -0.292606
     20          1           0        1.909736   -2.471033   -0.752440
     21          1           0        0.135499    2.066720    1.324396
 ---------------------------------------------------------------------

 SCF Done:  E(RB3LYP) =  -610.800434794     A.U. after   11 cycles

 The electronic state is 1-A.
 Alpha  occ. eigenvalues --  -19.18350 -19.17404 -19.17374 -19.17291 -19.16588
 Alpha  occ. eigenvalues --  -10.29323 -10.25183 -10.24813 -10.24575 -10.24422
 Alpha  occ. eigenvalues --  -10.23605  -1.11015  -1.05653  -1.03747  -1.02209
 Alpha  occ. eigenvalues --   -1.01105  -0.78855  -0.78188  -0.68100  -0.65876
 Alpha  occ. eigenvalues --   -0.62033  -0.57700  -0.55298  -0.53977  -0.52471
 Alpha  occ. eigenvalues --   -0.50131  -0.48599  -0.46592  -0.45906  -0.44859
 Alpha  occ. eigenvalues --   -0.43091  -0.41260  -0.40454  -0.38094  -0.36536
 Alpha  occ. eigenvalues --   -0.36267  -0.35259  -0.34780  -0.31901  -0.30135
 Alpha  occ. eigenvalues --   -0.29041  -0.28192  -0.26105
 Alpha virt. eigenvalues --    0.00645   0.01286   0.02068   0.02791   0.04257
 Alpha virt. eigenvalues --    0.04660   0.04910   0.05557   0.05911   0.08314
 Alpha virt. eigenvalues --    0.08525   0.09456   0.09818   0.10636   0.11612

 Mulliken atomic charges:
              1
     1  C   -0.131659
     2  C    0.242162
     3  C    0.163298
     4  C    0.008349
     5  C   -0.042946
     6  C    0.064846
     7  O   -0.413364
     8  O   -0.450515
     9  O   -0.625192
    10  O   -0.640325
    11  O   -0.627288
    12  H    0.177819
    13  H    0.162510
    14  H    0.182214
    15  H    0.173096
    16  H    0.173703
    17  H    0.185813
    18  H    0.412730
    19  H    0.411895
    20  H    0.417551
    21  H    0.155304
 Sum of Mulliken atomic charges =   0.00000

 Dipole moment (field-independent basis, Debye):
    X=              1.0754    Y=             -0.8647    Z=             -0.5622  Tot=              1.4900
 Quadrupole moment (field-independent basis, Debye-Ang):
   XX=            -61.9311   YY=            -65.0937   ZZ=            -66.8235
   XY=             -5.9762   XZ=             -7.2150   YZ=              6.8957

 Normal termination of Gaussian 09 at Mon Apr 15 17:55:14 2019.
