 Gaussian 09, Revision C.01,
 Gaussian 09:  EM64L-G09RevC.01 23-Sep-2011

 ------------------------------------------------
 # mpw1pw91/6-31+g** nmr scrf=(pcm,solvent=water)
 ------------------------------------------------

 99/9=1/99;
 -------
 comment
 -------
 Charge =  0 Multiplicity = 1

                         Standard orientation:
 ---------------------------------------------------------------------
 Center     Atomic      Atomic             Coordinates (Angstroms)
 Number     Number       Type             X           Y           Z
 ---------------------------------------------------------------------
      1          6           0       -0.672464    1.712238    0.593912
      2          6           0       -0.665286    1.027733   -0.780203
      3          6           0        1.352992    0.758120    0.079995
      4          6           0       -0.216429   -1.252718    0.274221
      5          6           0        1.257737   -0.767221    0.293933
      6          6           0       -1.034569   -0.469045   -0.770886
      7          8           0        0.727988    1.117496   -1.136774
      8          8           0        0.653481    1.454994    1.103982
      9          8           0       -2.417972   -0.688150   -0.533093
     10          8           0       -0.834751   -1.095654    1.546938
     11          8           0        1.938913   -1.466120   -0.743054
     12          1           0       -1.418730    1.294260    1.270548
     13          1           0       -0.811058    2.794982    0.501146
     14          1           0       -1.246601    1.565107   -1.533735
     15          1           0        2.393251    1.099311    0.049417
     16          1           0       -0.207553   -2.314209   -0.011918
     17          1           0        1.687049   -1.010548    1.278162
     18          1           0       -2.896088   -0.387011   -1.322561
     19          1           0       -0.310912   -1.603314    2.187084
     20          1           0        2.876875   -1.216256   -0.712487
     21          1           0       -0.739400   -0.857494   -1.755462
 ---------------------------------------------------------------------

 SCF Done:  E(RmPW1PW91) =  -610.642056738     A.U. after   12 cycles

      1  C    Isotropic =   131.1857   Anisotropy =    63.8593

      2  C    Isotropic =   117.9086   Anisotropy =    57.4635

      3  C    Isotropic =    92.4193   Anisotropy =    32.6463

      4  C    Isotropic =   122.5554   Anisotropy =    43.4183

      5  C    Isotropic =   118.9474   Anisotropy =    34.7577

      6  C    Isotropic =   127.3972   Anisotropy =    49.4426

      7  O    Isotropic =   236.2454   Anisotropy =    50.6294

      8  O    Isotropic =   263.4618   Anisotropy =   108.0760

      9  O    Isotropic =   302.3517   Anisotropy =    58.4547

     10  O    Isotropic =   294.0097   Anisotropy =    67.0346

     11  O    Isotropic =   293.3324   Anisotropy =    66.1928

     12  H    Isotropic =    26.9386   Anisotropy =     4.9628

     13  H    Isotropic =    27.8027   Anisotropy =    11.1900

     14  H    Isotropic =    27.3077   Anisotropy =     7.1981

     15  H    Isotropic =    26.3101   Anisotropy =     7.4414

     16  H    Isotropic =    27.2785   Anisotropy =     6.3048

     17  H    Isotropic =    27.9711   Anisotropy =     4.5650

     18  H    Isotropic =    29.9511   Anisotropy =    19.8698

     19  H    Isotropic =    30.4819   Anisotropy =    18.7419

     20  H    Isotropic =    30.1254   Anisotropy =    19.6438

     21  H    Isotropic =    27.4357   Anisotropy =     4.3092

 The electronic state is 1-A.
 Alpha  occ. eigenvalues --  -19.27449 -19.26584 -19.26529 -19.26413 -19.25893
 Alpha  occ. eigenvalues --  -10.35699 -10.31526 -10.31403 -10.31361 -10.31338
 Alpha  occ. eigenvalues --  -10.29989  -1.14042  -1.07940  -1.07003  -1.05743
 Alpha  occ. eigenvalues --   -1.03706  -0.81806  -0.80627  -0.70509  -0.68055
 Alpha  occ. eigenvalues --   -0.64981  -0.59994  -0.56870  -0.55984  -0.54484
 Alpha  occ. eigenvalues --   -0.52635  -0.49786  -0.48483  -0.47297  -0.45960
 Alpha  occ. eigenvalues --   -0.44991  -0.42862  -0.41849  -0.40157  -0.38506
 Alpha  occ. eigenvalues --   -0.37720  -0.37142  -0.34450  -0.33238  -0.31670
 Alpha  occ. eigenvalues --   -0.30718  -0.28686  -0.27052
 Alpha virt. eigenvalues --    0.00372   0.01247   0.02176   0.02413   0.03866
 Alpha virt. eigenvalues --    0.04131   0.05043   0.05601   0.05929   0.08394
 Alpha virt. eigenvalues --    0.08785   0.09079   0.09698   0.10898   0.11758

 Mulliken atomic charges:
              1
     1  C   -0.165088
     2  C    0.252916
     3  C   -0.169342
     4  C    0.056243
     5  C    0.090960
     6  C   -0.164862
     7  O   -0.325535
     8  O   -0.337513
     9  O   -0.555707
    10  O   -0.579900
    11  O   -0.541931
    12  H    0.191145
    13  H    0.170000
    14  H    0.189523
    15  H    0.181211
    16  H    0.174024
    17  H    0.172416
    18  H    0.394645
    19  H    0.392099
    20  H    0.388521
    21  H    0.186172
 Sum of Mulliken atomic charges =   0.00000

 Dipole moment (field-independent basis, Debye):
    X=              1.3778    Y=             -0.0901    Z=             -0.9348  Tot=              1.6674
 Quadrupole moment (field-independent basis, Debye-Ang):
   XX=            -56.4312   YY=            -65.9835   ZZ=            -64.0480
   XY=             -7.4516   XZ=              9.7366   YZ=             -4.9643

 Normal termination of Gaussian 09 at Fri Apr 12 10:59:46 2019.
