 Gaussian 09, Revision C.01,
 Gaussian 09:  EM64L-G09RevC.01 23-Sep-2011

 ------------------------------------------------
 # mpw1pw91/6-31+g** nmr scrf=(pcm,solvent=water)
 ------------------------------------------------

 99/9=1/99;
 -------
 comment
 -------
 Charge =  0 Multiplicity = 1

                         Standard orientation:
 ---------------------------------------------------------------------
 Center     Atomic      Atomic             Coordinates (Angstroms)
 Number     Number       Type             X           Y           Z
 ---------------------------------------------------------------------
      1          6           0       -0.601133    1.756740    0.512040
      2          6           0       -0.536700    1.037809   -0.841972
      3          6           0        1.395417    0.667665    0.194643
      4          6           0       -0.277666   -1.256154    0.258787
      5          6           0        1.209639   -0.849293    0.373813
      6          6           0       -1.018801   -0.425274   -0.817556
      7          8           0        0.886520    1.014245   -1.091472
      8          8           0        0.658640    1.428945    1.131488
      9          8           0       -2.407094   -0.538587   -0.519797
     10          8           0       -0.885536   -1.090273    1.535445
     11          8           0        2.007111   -1.518589   -0.599372
     12          1           0       -1.425837    1.409251    1.136412
     13          1           0       -0.661266    2.843093    0.386780
     14          1           0       -1.013970    1.597627   -1.649631
     15          1           0        2.452497    0.944766    0.234599
     16          1           0       -0.308355   -2.315435   -0.036256
     17          1           0        1.576382   -1.164390    1.355197
     18          1           0       -2.920916   -0.224903   -1.280754
     19          1           0       -1.845100   -1.121236    1.374337
     20          1           0        1.840546   -1.068404   -1.446326
     21          1           0       -0.795642   -0.855261   -1.803236
 ---------------------------------------------------------------------

 SCF Done:  E(RmPW1PW91) =  -610.648032123     A.U. after   12 cycles

      1  C    Isotropic =   131.1122   Anisotropy =    66.1123

      2  C    Isotropic =   119.0347   Anisotropy =    58.8393

      3  C    Isotropic =    92.7047   Anisotropy =    35.2526

      4  C    Isotropic =   122.6257   Anisotropy =    45.4230

      5  C    Isotropic =   122.8709   Anisotropy =    38.5747

      6  C    Isotropic =   129.0336   Anisotropy =    49.3046

      7  O    Isotropic =   240.9262   Anisotropy =    49.3305

      8  O    Isotropic =   266.1784   Anisotropy =   107.8105

      9  O    Isotropic =   305.8099   Anisotropy =    53.2785

     10  O    Isotropic =   312.0710   Anisotropy =    43.3009

     11  O    Isotropic =   290.8215   Anisotropy =    26.0800

     12  H    Isotropic =    27.0783   Anisotropy =     4.9196

     13  H    Isotropic =    27.7554   Anisotropy =    11.2145

     14  H    Isotropic =    27.2762   Anisotropy =     7.4860

     15  H    Isotropic =    26.1466   Anisotropy =     7.7123

     16  H    Isotropic =    27.4055   Anisotropy =     7.1552

     17  H    Isotropic =    27.8754   Anisotropy =     5.4664

     18  H    Isotropic =    29.4948   Anisotropy =    20.7568

     19  H    Isotropic =    28.7422   Anisotropy =    16.9255

     20  H    Isotropic =    29.6564   Anisotropy =    13.4874

     21  H    Isotropic =    27.5279   Anisotropy =     5.0238

 The electronic state is 1-A.
 Alpha  occ. eigenvalues --  -19.28194 -19.27514 -19.26852 -19.26482 -19.25672
 Alpha  occ. eigenvalues --  -10.35923 -10.31862 -10.31814 -10.31296 -10.31235
 Alpha  occ. eigenvalues --  -10.30372  -1.14442  -1.08803  -1.07112  -1.05585
 Alpha  occ. eigenvalues --   -1.04120  -0.82152  -0.80535  -0.71094  -0.68236
 Alpha  occ. eigenvalues --   -0.65414  -0.60317  -0.57807  -0.56305  -0.54416
 Alpha  occ. eigenvalues --   -0.52721  -0.49952  -0.48313  -0.47698  -0.46067
 Alpha  occ. eigenvalues --   -0.44728  -0.42989  -0.42455  -0.40925  -0.39060
 Alpha  occ. eigenvalues --   -0.38223  -0.37643  -0.35486  -0.33168  -0.31867
 Alpha  occ. eigenvalues --   -0.30946  -0.29119  -0.27447
 Alpha virt. eigenvalues --    0.00266   0.01286   0.02305   0.02802   0.04149
 Alpha virt. eigenvalues --    0.04319   0.05082   0.05402   0.05671   0.08297
 Alpha virt. eigenvalues --    0.08985   0.09495   0.09703   0.10780   0.11810

 Mulliken atomic charges:
              1
     1  C   -0.168702
     2  C    0.210842
     3  C   -0.085857
     4  C    0.033358
     5  C    0.077740
     6  C   -0.182018
     7  O   -0.373082
     8  O   -0.332729
     9  O   -0.614543
    10  O   -0.556249
    11  O   -0.497100
    12  H    0.187526
    13  H    0.174279
    14  H    0.196894
    15  H    0.189037
    16  H    0.173786
    17  H    0.189189
    18  H    0.413806
    19  H    0.398326
    20  H    0.376519
    21  H    0.188976
 Sum of Mulliken atomic charges =   0.00000

 Dipole moment (field-independent basis, Debye):
    X=             -3.9676    Y=              1.4805    Z=             -4.2856  Tot=              6.0250
 Quadrupole moment (field-independent basis, Debye-Ang):
   XX=            -60.7361   YY=            -68.2418   ZZ=            -65.1260
   XY=             -0.7778   XZ=              5.7246   YZ=             -0.1242

 Normal termination of Gaussian 09 at Fri Apr 12 10:41:15 2019.
