 Gaussian 09, Revision C.01,
 Gaussian 09:  EM64L-G09RevC.01 23-Sep-2011

 -----------------------------------------------------------
 # B3LYP/6-31+G** test scrf=(pcm,solvent=water,smd,dovacuum)
 -----------------------------------------------------------

 99/5=1,9=1/99;
 -------
 comment
 -------
 Charge =  0 Multiplicity = 1

                         Standard orientation:
 ---------------------------------------------------------------------
 Center     Atomic      Atomic             Coordinates (Angstroms)
 Number     Number       Type             X           Y           Z
 ---------------------------------------------------------------------
      1          6           0       -2.133231   -0.625041    0.106368
      2          6           0       -1.200573    0.242913    0.935390
      3          6           0        0.061489   -1.356115    0.021484
      4          6           0        0.956505    0.971688   -0.223200
      5          6           0        1.070541   -0.483257   -0.760117
      6          6           0       -0.503068    1.372339    0.093721
      7          8           0       -0.209019   -0.757562    1.290360
      8          8           0       -1.190120   -1.379221   -0.679977
      9          8           0       -1.215932    1.724106   -1.088163
     10          8           0        1.785037    1.097315    0.940694
     11          8           0        2.400360   -0.948512   -0.618244
     12          1           0       -2.792370   -0.073111   -0.563908
     13          1           0       -2.723320   -1.288814    0.748160
     14          1           0       -1.637197    0.615464    1.861898
     15          1           0        0.436083   -2.369653    0.187664
     16          1           0        1.362472    1.677826   -0.951157
     17          1           0        0.812990   -0.534852   -1.823497
     18          1           0       -0.466476    2.290126    0.685502
     19          1           0       -1.205340    0.959036   -1.687973
     20          1           0        1.372660    0.529873    1.619426
     21          1           0        2.767912   -0.430066    0.124657
 ---------------------------------------------------------------------

 SCF Done:  E(RB3LYP) =  -610.799161922     A.U. after   12 cycles

 The electronic state is 1-A.
 Alpha  occ. eigenvalues --  -19.18805 -19.17863 -19.17461 -19.17403 -19.16717
 Alpha  occ. eigenvalues --  -10.29347 -10.25260 -10.25210 -10.24992 -10.24489
 Alpha  occ. eigenvalues --  -10.23991  -1.11281  -1.05591  -1.04119  -1.02448
 Alpha  occ. eigenvalues --   -1.01124  -0.79128  -0.77534  -0.68249  -0.66188
 Alpha  occ. eigenvalues --   -0.62369  -0.59006  -0.56568  -0.53003  -0.51372
 Alpha  occ. eigenvalues --   -0.50993  -0.47963  -0.47735  -0.45038  -0.44276
 Alpha  occ. eigenvalues --   -0.42693  -0.41249  -0.40841  -0.40210  -0.36913
 Alpha  occ. eigenvalues --   -0.35807  -0.34977  -0.34341  -0.33630  -0.31506
 Alpha  occ. eigenvalues --   -0.29407  -0.27768  -0.26077
 Alpha virt. eigenvalues --    0.00759   0.00979   0.02555   0.03065   0.04129
 Alpha virt. eigenvalues --    0.04831   0.05171   0.05468   0.05557   0.08164
 Alpha virt. eigenvalues --    0.08497   0.09174   0.10151   0.10995   0.11282

 Mulliken atomic charges:
              1
     1  C   -0.184555
     2  C    0.333675
     3  C    0.166580
     4  C    0.039504
     5  C   -0.000987
     6  C   -0.122607
     7  O   -0.471733
     8  O   -0.469116
     9  O   -0.557623
    10  O   -0.622647
    11  O   -0.599782
    12  H    0.182776
    13  H    0.168421
    14  H    0.184385
    15  H    0.173862
    16  H    0.176448
    17  H    0.182722
    18  H    0.177747
    19  H    0.402222
    20  H    0.428952
    21  H    0.411754
 Sum of Mulliken atomic charges =   0.00000

 Dipole moment (field-independent basis, Debye):
    X=             -3.1139    Y=              0.4065    Z=              1.6933  Tot=              3.5677
 Quadrupole moment (field-independent basis, Debye-Ang):
   XX=            -69.2575   YY=            -74.0260   ZZ=            -63.4961
   XY=              1.7133   XZ=             -1.2966   YZ=             -0.1356

 Normal termination of Gaussian 09 at Mon Apr 15 18:34:30 2019.
