 Gaussian 09, Revision C.01,
 Gaussian 09:  EM64L-G09RevC.01 23-Sep-2011

 ------------------------------------------------
 # mpw1pw91/6-31+g** nmr scrf=(pcm,solvent=water)
 ------------------------------------------------

 99/9=1/99;
 -------
 comment
 -------
 Charge =  0 Multiplicity = 1

                         Standard orientation:
 ---------------------------------------------------------------------
 Center     Atomic      Atomic             Coordinates (Angstroms)
 Number     Number       Type             X           Y           Z
 ---------------------------------------------------------------------
      1          6           0       -1.731553    1.081777   -0.542959
      2          6           0       -0.917903    0.920376    0.746784
      3          6           0       -1.158306   -1.112737   -0.137921
      4          6           0        1.044129   -0.010657   -0.554754
      5          6           0        0.336632   -1.375179   -0.404720
      6          6           0        0.610468    0.970572    0.548632
      7          8           0       -1.259360   -0.435491    1.110820
      8          8           0       -1.724952   -0.243437   -1.110677
      9          8           0        1.114920    2.281256    0.307270
     10          8           0        2.450778   -0.197551   -0.556270
     11          8           0        0.857633   -2.175971    0.647241
     12          1           0       -1.298777    1.786887   -1.259954
     13          1           0       -2.762707    1.382592   -0.330446
     14          1           0       -1.234979    1.586907    1.550300
     15          1           0       -1.732117   -2.040674   -0.077023
     16          1           0        0.720842    0.405974   -1.522808
     17          1           0        0.469286   -1.954296   -1.323673
     18          1           0        1.073164    0.662897    1.492165
     19          1           0        0.784115    2.586600   -0.554703
     20          1           0        2.837446    0.694726   -0.568740
     21          1           0        0.530774   -1.786967    1.477452
 ---------------------------------------------------------------------

 SCF Done:  E(RmPW1PW91) =  -610.648393179     A.U. after   12 cycles

      1  C    Isotropic =   132.2890   Anisotropy =    68.1116

      2  C    Isotropic =   119.2514   Anisotropy =    59.6111

      3  C    Isotropic =    92.0310   Anisotropy =    32.4778

      4  C    Isotropic =   123.1109   Anisotropy =    31.6622

      5  C    Isotropic =   122.9185   Anisotropy =    37.3111

      6  C    Isotropic =   122.1924   Anisotropy =    36.5280

      7  O    Isotropic =   237.0635   Anisotropy =    56.4755

      8  O    Isotropic =   263.9530   Anisotropy =   112.3681

      9  O    Isotropic =   300.9305   Anisotropy =    62.7206

     10  O    Isotropic =   307.1423   Anisotropy =    33.5515

     11  O    Isotropic =   304.2506   Anisotropy =    49.4898

     12  H    Isotropic =    27.6760   Anisotropy =     6.5124

     13  H    Isotropic =    27.7233   Anisotropy =    11.6683

     14  H    Isotropic =    27.1228   Anisotropy =     7.7182

     15  H    Isotropic =    26.1203   Anisotropy =     8.0292

     16  H    Isotropic =    28.0108   Anisotropy =     5.1767

     17  H    Isotropic =    27.6636   Anisotropy =     6.3518

     18  H    Isotropic =    27.8664   Anisotropy =     2.8458

     19  H    Isotropic =    30.6847   Anisotropy =    16.6602

     20  H    Isotropic =    29.0920   Anisotropy =    17.8249

     21  H    Isotropic =    29.9226   Anisotropy =    14.4916

 The electronic state is 1-A.
 Alpha  occ. eigenvalues --  -19.28643 -19.27563 -19.27439 -19.26393 -19.26253
 Alpha  occ. eigenvalues --  -10.36409 -10.32379 -10.31828 -10.31540 -10.31509
 Alpha  occ. eigenvalues --  -10.31377  -1.14965  -1.08699  -1.07316  -1.05862
 Alpha  occ. eigenvalues --   -1.04631  -0.82708  -0.81270  -0.71536  -0.68221
 Alpha  occ. eigenvalues --   -0.65547  -0.61934  -0.58290  -0.55139  -0.54324
 Alpha  occ. eigenvalues --   -0.53258  -0.51853  -0.48353  -0.47638  -0.46493
 Alpha  occ. eigenvalues --   -0.44627  -0.44101  -0.42847  -0.40219  -0.39592
 Alpha  occ. eigenvalues --   -0.38480  -0.37806  -0.35475  -0.34977  -0.31879
 Alpha  occ. eigenvalues --   -0.31071  -0.29159  -0.28190
 Alpha virt. eigenvalues --    0.00433   0.01357   0.02040   0.02199   0.04221
 Alpha virt. eigenvalues --    0.04554   0.04832   0.05420   0.05533   0.08428
 Alpha virt. eigenvalues --    0.08838   0.09477   0.09706   0.10530   0.11110

 Mulliken atomic charges:
              1
     1  C   -0.164536
     2  C    0.247654
     3  C   -0.151228
     4  C   -0.068399
     5  C    0.202173
     6  C   -0.241262
     7  O   -0.369655
     8  O   -0.360516
     9  O   -0.533066
    10  O   -0.528954
    11  O   -0.500487
    12  H    0.174647
    13  H    0.186140
    14  H    0.204409
    15  H    0.192688
    16  H    0.184331
    17  H    0.186837
    18  H    0.198499
    19  H    0.376430
    20  H    0.386819
    21  H    0.377477
 Sum of Mulliken atomic charges =   0.00000

 Dipole moment (field-independent basis, Debye):
    X=             -2.5630    Y=              4.2916    Z=             -0.9630  Tot=              5.0906
 Quadrupole moment (field-independent basis, Debye-Ang):
   XX=            -71.5425   YY=            -65.9772   ZZ=            -63.5250
   XY=              2.5495   XZ=             -2.3921   YZ=             -3.6354

 Normal termination of Gaussian 09 at Fri Apr 12 11:14:48 2019.
