 Gaussian 09, Revision C.01,
 Gaussian 09:  EM64L-G09RevC.01 23-Sep-2011

 ------------------------------------------------
 # mpw1pw91/6-31+g** nmr scrf=(pcm,solvent=water)
 ------------------------------------------------

 99/9=1/99;
 -------
 comment
 -------
 Charge =  0 Multiplicity = 1

                         Standard orientation:
 ---------------------------------------------------------------------
 Center     Atomic      Atomic             Coordinates (Angstroms)
 Number     Number       Type             X           Y           Z
 ---------------------------------------------------------------------
      1          6           0       -1.846884    0.833758   -0.600220
      2          6           0       -1.039838    0.851905    0.704267
      3          6           0       -1.036229   -1.244339   -0.017712
      4          6           0        1.006286    0.099247   -0.563695
      5          6           0        0.457580   -1.326732   -0.371815
      6          6           0        0.474702    1.060897    0.503542
      7          8           0       -1.225685   -0.497339    1.167101
      8          8           0       -1.723167   -0.532629   -1.049768
      9          8           0        0.809494    2.374318    0.059868
     10          8           0        2.429308    0.007102   -0.523358
     11          8           0        1.132848   -1.994842    0.682843
     12          1           0       -1.451177    1.515353   -1.358734
     13          1           0       -2.903511    1.060849   -0.423302
     14          1           0       -1.440244    1.535285    1.456256
     15          1           0       -1.482858   -2.232488    0.118191
     16          1           0        0.685471    0.470262   -1.546108
     17          1           0        0.566857   -1.881902   -1.316120
     18          1           0        0.967610    0.832522    1.457418
     19          1           0        0.757235    2.976046    0.819854
     20          1           0        2.766875    0.915854   -0.449480
     21          1           0        2.057660   -1.693081    0.622328
 ---------------------------------------------------------------------

 SCF Done:  E(RmPW1PW91) =  -610.651775150     A.U. after   12 cycles

      1  C    Isotropic =   131.9321   Anisotropy =    66.1871

      2  C    Isotropic =   118.9157   Anisotropy =    60.7147

      3  C    Isotropic =    92.9801   Anisotropy =    33.9187

      4  C    Isotropic =   124.9009   Anisotropy =    35.8260

      5  C    Isotropic =   124.6766   Anisotropy =    41.4173

      6  C    Isotropic =   122.9285   Anisotropy =    34.3759

      7  O    Isotropic =   238.3433   Anisotropy =    52.5027

      8  O    Isotropic =   263.6535   Anisotropy =   119.0640

      9  O    Isotropic =   304.4721   Anisotropy =    56.1356

     10  O    Isotropic =   306.8584   Anisotropy =    30.1604

     11  O    Isotropic =   311.7178   Anisotropy =    22.7869

     12  H    Isotropic =    27.5014   Anisotropy =     6.1940

     13  H    Isotropic =    27.8131   Anisotropy =    11.6238

     14  H    Isotropic =    27.2076   Anisotropy =     7.5748

     15  H    Isotropic =    26.0274   Anisotropy =     7.8389

     16  H    Isotropic =    27.7629   Anisotropy =     4.3275

     17  H    Isotropic =    27.5840   Anisotropy =     6.7716

     18  H    Isotropic =    27.5951   Anisotropy =     2.6261

     19  H    Isotropic =    29.7631   Anisotropy =    20.8640

     20  H    Isotropic =    28.8981   Anisotropy =    18.2100

     21  H    Isotropic =    28.5076   Anisotropy =    17.1903

 The electronic state is 1-A.
 Alpha  occ. eigenvalues --  -19.27804 -19.27139 -19.27041 -19.27022 -19.25829
 Alpha  occ. eigenvalues --  -10.36007 -10.31865 -10.31604 -10.31560 -10.31220
 Alpha  occ. eigenvalues --  -10.30691  -1.14409  -1.09005  -1.07202  -1.05461
 Alpha  occ. eigenvalues --   -1.04119  -0.82422  -0.81254  -0.70755  -0.68282
 Alpha  occ. eigenvalues --   -0.65273  -0.60644  -0.57187  -0.56856  -0.53118
 Alpha  occ. eigenvalues --   -0.52554  -0.51668  -0.48918  -0.47587  -0.46156
 Alpha  occ. eigenvalues --   -0.45216  -0.44195  -0.41778  -0.40241  -0.39702
 Alpha  occ. eigenvalues --   -0.37871  -0.36591  -0.36378  -0.33256  -0.31703
 Alpha  occ. eigenvalues --   -0.30482  -0.29326  -0.28220
 Alpha virt. eigenvalues --    0.00471   0.01387   0.01731   0.02676   0.04108
 Alpha virt. eigenvalues --    0.04692   0.04876   0.05520   0.05980   0.08283
 Alpha virt. eigenvalues --    0.08848   0.09493   0.09780   0.10508   0.11385

 Mulliken atomic charges:
              1
     1  C   -0.171743
     2  C    0.254550
     3  C   -0.150900
     4  C   -0.036804
     5  C    0.228213
     6  C   -0.211675
     7  O   -0.320750
     8  O   -0.363957
     9  O   -0.563263
    10  O   -0.591144
    11  O   -0.552597
    12  H    0.185370
    13  H    0.178411
    14  H    0.195453
    15  H    0.185120
    16  H    0.189060
    17  H    0.173576
    18  H    0.192077
    19  H    0.396179
    20  H    0.393037
    21  H    0.391786
 Sum of Mulliken atomic charges =   0.00000

 Dipole moment (field-independent basis, Debye):
    X=              0.3686    Y=              4.8988    Z=              0.7636  Tot=              4.9716
 Quadrupole moment (field-independent basis, Debye-Ang):
   XX=            -63.9399   YY=            -60.9813   ZZ=            -67.4125
   XY=              0.3902   XZ=              1.0513   YZ=              8.1402

 Normal termination of Gaussian 09 at Fri Apr 12 11:09:41 2019.
