 Gaussian 09, Revision C.01,
 Gaussian 09:  EM64L-G09RevC.01 23-Sep-2011

 ------------------------------------------------
 # mpw1pw91/6-31+g** nmr scrf=(pcm,solvent=water)
 ------------------------------------------------

 99/9=1/99;
 -------
 comment
 -------
 Charge =  0 Multiplicity = 1

                         Standard orientation:
 ---------------------------------------------------------------------
 Center     Atomic      Atomic             Coordinates (Angstroms)
 Number     Number       Type             X           Y           Z
 ---------------------------------------------------------------------
      1          6           0       -2.171572   -0.531778    0.117376
      2          6           0       -1.182851    0.264061    0.958340
      3          6           0       -0.022241   -1.376637    0.016692
      4          6           0        0.985429    0.917238   -0.259629
      5          6           0        1.046947   -0.563518   -0.741895
      6          6           0       -0.443586    1.369738    0.123766
      7          8           0       -0.259495   -0.797441    1.286465
      8          8           0       -1.271492   -1.304210   -0.700366
      9          8           0       -1.172411    1.787682   -1.030186
     10          8           0        1.851497    1.017527    0.883265
     11          8           0        2.345721   -1.087297   -0.538651
     12          1           0       -2.813459    0.065958   -0.529676
     13          1           0       -2.784526   -1.184688    0.749710
     14          1           0       -1.591139    0.649011    1.893083
     15          1           0        0.285469   -2.417362    0.153728
     16          1           0        1.342691    1.577751   -1.055655
     17          1           0        0.828571   -0.627031   -1.813320
     18          1           0       -0.343342    2.270813    0.733404
     19          1           0       -1.215494    1.035148   -1.644222
     20          1           0        2.386552    1.819677    0.784006
     21          1           0        2.681359   -0.593989    0.236823
 ---------------------------------------------------------------------

 SCF Done:  E(RmPW1PW91) =  -610.639003834     A.U. after   12 cycles

      1  C    Isotropic =   132.3847   Anisotropy =    55.7228

      2  C    Isotropic =   119.6234   Anisotropy =    47.0941

      3  C    Isotropic =    90.0252   Anisotropy =    29.2974

      4  C    Isotropic =   125.4814   Anisotropy =    56.2151

      5  C    Isotropic =   125.4691   Anisotropy =    45.5688

      6  C    Isotropic =   124.7873   Anisotropy =    53.5613

      7  O    Isotropic =   248.3451   Anisotropy =    61.3300

      8  O    Isotropic =   256.4054   Anisotropy =   108.0421

      9  O    Isotropic =   288.8225   Anisotropy =    23.9711

     10  O    Isotropic =   300.3288   Anisotropy =    31.5060

     11  O    Isotropic =   305.1019   Anisotropy =    38.9277

     12  H    Isotropic =    27.3202   Anisotropy =     6.9441

     13  H    Isotropic =    28.1097   Anisotropy =    12.0997

     14  H    Isotropic =    26.8223   Anisotropy =     8.1787

     15  H    Isotropic =    26.3073   Anisotropy =     6.8135

     16  H    Isotropic =    27.5469   Anisotropy =     6.7066

     17  H    Isotropic =    27.9583   Anisotropy =     5.3411

     18  H    Isotropic =    27.3611   Anisotropy =     5.9688

     19  H    Isotropic =    30.0403   Anisotropy =    12.8343

     20  H    Isotropic =    29.1936   Anisotropy =    21.9877

     21  H    Isotropic =    27.4022   Anisotropy =    16.7629

 The electronic state is 1-A.
 Alpha  occ. eigenvalues --  -19.27543 -19.27403 -19.27196 -19.26745 -19.25644
 Alpha  occ. eigenvalues --  -10.35498 -10.32047 -10.31812 -10.31777 -10.31086
 Alpha  occ. eigenvalues --  -10.30534  -1.14272  -1.08836  -1.07168  -1.05357
 Alpha  occ. eigenvalues --   -1.03936  -0.81788  -0.80602  -0.70690  -0.68526
 Alpha  occ. eigenvalues --   -0.64672  -0.60511  -0.58078  -0.56502  -0.54124
 Alpha  occ. eigenvalues --   -0.52558  -0.50818  -0.47960  -0.47344  -0.46733
 Alpha  occ. eigenvalues --   -0.44306  -0.42955  -0.42238  -0.40409  -0.38400
 Alpha  occ. eigenvalues --   -0.37551  -0.37033  -0.35341  -0.34727  -0.32830
 Alpha  occ. eigenvalues --   -0.30930  -0.29176  -0.27156
 Alpha virt. eigenvalues --    0.00409   0.00813   0.02368   0.02734   0.04082
 Alpha virt. eigenvalues --    0.04665   0.05006   0.05241   0.05541   0.07787
 Alpha virt. eigenvalues --    0.08178   0.09178   0.09878   0.10904   0.11624

 Mulliken atomic charges:
              1
     1  C   -0.232001
     2  C    0.324480
     3  C    0.030954
     4  C   -0.079421
     5  C    0.013368
     6  C   -0.134887
     7  O   -0.346717
     8  O   -0.417585
     9  O   -0.494332
    10  O   -0.619484
    11  O   -0.542756
    12  H    0.189128
    13  H    0.177884
    14  H    0.190791
    15  H    0.182911
    16  H    0.196769
    17  H    0.188663
    18  H    0.185072
    19  H    0.378737
    20  H    0.413759
    21  H    0.394667
 Sum of Mulliken atomic charges =   0.00000

 Dipole moment (field-independent basis, Debye):
    X=             -0.7279    Y=              3.1855    Z=              0.3214  Tot=              3.2834
 Quadrupole moment (field-independent basis, Debye-Ang):
   XX=            -61.5784   YY=            -66.6351   ZZ=            -66.6034
   XY=              9.1505   XZ=             -1.3749   YZ=              1.7802

 Normal termination of Gaussian 09 at Fri Apr 12 11:19:19 2019.
