 Gaussian 09, Revision C.01,
 Gaussian 09:  EM64L-G09RevC.01 23-Sep-2011

 -----------------------------------------------------------
 # B3LYP/6-31+G** test scrf=(pcm,solvent=water,smd,dovacuum)
 -----------------------------------------------------------

 99/5=1,9=1/99;
 -------
 comment
 -------
 Charge =  0 Multiplicity = 1

                         Standard orientation:
 ---------------------------------------------------------------------
 Center     Atomic      Atomic             Coordinates (Angstroms)
 Number     Number       Type             X           Y           Z
 ---------------------------------------------------------------------
      1          6           0       -1.731553    1.081777   -0.542959
      2          6           0       -0.917903    0.920376    0.746784
      3          6           0       -1.158306   -1.112737   -0.137921
      4          6           0        1.044129   -0.010657   -0.554754
      5          6           0        0.336632   -1.375179   -0.404720
      6          6           0        0.610468    0.970572    0.548632
      7          8           0       -1.259360   -0.435491    1.110820
      8          8           0       -1.724952   -0.243437   -1.110677
      9          8           0        1.114920    2.281256    0.307270
     10          8           0        2.450778   -0.197551   -0.556270
     11          8           0        0.857633   -2.175971    0.647241
     12          1           0       -1.298777    1.786887   -1.259954
     13          1           0       -2.762707    1.382592   -0.330446
     14          1           0       -1.234979    1.586907    1.550300
     15          1           0       -1.732117   -2.040674   -0.077023
     16          1           0        0.720842    0.405974   -1.522808
     17          1           0        0.469286   -1.954296   -1.323673
     18          1           0        1.073164    0.662897    1.492165
     19          1           0        0.784115    2.586600   -0.554703
     20          1           0        2.837446    0.694726   -0.568740
     21          1           0        0.530774   -1.786967    1.477452
 ---------------------------------------------------------------------

 SCF Done:  E(RB3LYP) =  -610.809894919     A.U. after   12 cycles

 The electronic state is 1-A.
 Alpha  occ. eigenvalues --  -19.18798 -19.17912 -19.17471 -19.17112 -19.16916
 Alpha  occ. eigenvalues --  -10.29671 -10.25251 -10.24757 -10.24688 -10.24508
 Alpha  occ. eigenvalues --  -10.24208  -1.11436  -1.05262  -1.03994  -1.02653
 Alpha  occ. eigenvalues --   -1.01402  -0.79378  -0.78174  -0.68517  -0.65413
 Alpha  occ. eigenvalues --   -0.62806  -0.59349  -0.55871  -0.52804  -0.52008
 Alpha  occ. eigenvalues --   -0.50929  -0.49433  -0.46017  -0.45592  -0.44386
 Alpha  occ. eigenvalues --   -0.42544  -0.41974  -0.40822  -0.38602  -0.37850
 Alpha  occ. eigenvalues --   -0.36564  -0.36084  -0.33531  -0.33208  -0.30319
 Alpha  occ. eigenvalues --   -0.29381  -0.27483  -0.26621
 Alpha virt. eigenvalues --    0.00659   0.01503   0.02215   0.02399   0.04442
 Alpha virt. eigenvalues --    0.04769   0.05139   0.05569   0.05781   0.08689
 Alpha virt. eigenvalues --    0.09067   0.09639   0.09997   0.10772   0.11366

 Mulliken atomic charges:
              1
     1  C   -0.146353
     2  C    0.292631
     3  C   -0.006348
     4  C    0.060768
     5  C    0.154413
     6  C   -0.146938
     7  O   -0.431347
     8  O   -0.434140
     9  O   -0.600762
    10  O   -0.621634
    11  O   -0.572131
    12  H    0.177689
    13  H    0.169452
    14  H    0.184197
    15  H    0.174735
    16  H    0.178617
    17  H    0.173805
    18  H    0.179402
    19  H    0.403075
    20  H    0.411063
    21  H    0.399805
 Sum of Mulliken atomic charges =   0.00000

 Dipole moment (field-independent basis, Debye):
    X=             -2.7484    Y=              4.8184    Z=             -1.1440  Tot=              5.6639
 Quadrupole moment (field-independent basis, Debye-Ang):
   XX=            -73.5142   YY=            -67.0398   ZZ=            -64.0543
   XY=              2.8814   XZ=             -2.6966   YZ=             -4.2009

 Normal termination of Gaussian 09 at Mon Apr 15 18:20:27 2019.
