 Gaussian 09, Revision C.01,
 Gaussian 09:  EM64L-G09RevC.01 23-Sep-2011

 -----------------------------------------------------------
 # B3LYP/6-31+G** test scrf=(pcm,solvent=water,smd,dovacuum)
 -----------------------------------------------------------

 99/5=1,9=1/99;
 -------
 comment
 -------
 Charge =  0 Multiplicity = 1

                         Standard orientation:
 ---------------------------------------------------------------------
 Center     Atomic      Atomic             Coordinates (Angstroms)
 Number     Number       Type             X           Y           Z
 ---------------------------------------------------------------------
      1          6           0       -1.702960    1.097940   -0.559653
      2          6           0       -0.911490    0.926665    0.739889
      3          6           0       -1.168786   -1.104626   -0.136456
      4          6           0        1.044083   -0.024667   -0.549889
      5          6           0        0.325553   -1.380198   -0.394121
      6          6           0        0.617037    0.968289    0.540263
      7          8           0       -1.268785   -0.422887    1.110336
      8          8           0       -1.724878   -0.235580   -1.114064
      9          8           0        1.081895    2.249715    0.121712
     10          8           0        2.450457   -0.223579   -0.544846
     11          8           0        0.834370   -2.180964    0.664925
     12          1           0       -1.224620    1.785951   -1.261709
     13          1           0       -2.730295    1.425498   -0.369096
     14          1           0       -1.232142    1.597880    1.539234
     15          1           0       -1.749743   -2.028205   -0.074674
     16          1           0        0.730242    0.396015   -1.516321
     17          1           0        0.457918   -1.965516   -1.309161
     18          1           0        1.091620    0.675955    1.486944
     19          1           0        1.102413    2.836087    0.895151
     20          1           0        2.840273    0.663372   -0.625780
     21          1           0        0.509245   -1.781099    1.490699
 ---------------------------------------------------------------------

 SCF Done:  E(RB3LYP) =  -610.809925294     A.U. after   12 cycles

 The electronic state is 1-A.
 Alpha  occ. eigenvalues --  -19.18747 -19.17848 -19.17335 -19.17086 -19.16889
 Alpha  occ. eigenvalues --  -10.29619 -10.25094 -10.24702 -10.24632 -10.24444
 Alpha  occ. eigenvalues --  -10.24016  -1.11348  -1.05194  -1.03922  -1.02596
 Alpha  occ. eigenvalues --   -1.01319  -0.79416  -0.78224  -0.68248  -0.65289
 Alpha  occ. eigenvalues --   -0.63055  -0.58172  -0.55489  -0.54507  -0.52654
 Alpha  occ. eigenvalues --   -0.49544  -0.48188  -0.46528  -0.45912  -0.45173
 Alpha  occ. eigenvalues --   -0.42882  -0.41791  -0.39788  -0.38540  -0.37842
 Alpha  occ. eigenvalues --   -0.36912  -0.36134  -0.33866  -0.31845  -0.30499
 Alpha  occ. eigenvalues --   -0.29086  -0.27850  -0.26648
 Alpha virt. eigenvalues --    0.00684   0.01474   0.02059   0.02434   0.04192
 Alpha virt. eigenvalues --    0.04763   0.05194   0.05739   0.05919   0.08430
 Alpha virt. eigenvalues --    0.09098   0.09715   0.09900   0.10853   0.11522

 Mulliken atomic charges:
              1
     1  C   -0.140026
     2  C    0.289693
     3  C   -0.009141
     4  C    0.006629
     5  C    0.189099
     6  C   -0.102516
     7  O   -0.429041
     8  O   -0.434589
     9  O   -0.633289
    10  O   -0.622297
    11  O   -0.574647
    12  H    0.179437
    13  H    0.167777
    14  H    0.183532
    15  H    0.173991
    16  H    0.178065
    17  H    0.173658
    18  H    0.177035
    19  H    0.417752
    20  H    0.408952
    21  H    0.399926
 Sum of Mulliken atomic charges =   0.00000

 Dipole moment (field-independent basis, Debye):
    X=             -1.8096    Y=              5.6113    Z=              2.3856  Tot=              6.3602
 Quadrupole moment (field-independent basis, Debye-Ang):
   XX=            -72.1987   YY=            -63.3801   ZZ=            -62.8591
   XY=              5.9121   XZ=              0.4611   YZ=              6.4837

 Normal termination of Gaussian 09 at Mon Apr 15 18:44:51 2019.
