 Gaussian 09, Revision C.01,
 Gaussian 09:  EM64L-G09RevC.01 23-Sep-2011

 ------------------------------------------------
 # mpw1pw91/6-31+g** nmr scrf=(pcm,solvent=water)
 ------------------------------------------------

 99/9=1/99;
 -------
 comment
 -------
 Charge =  0 Multiplicity = 1

                         Standard orientation:
 ---------------------------------------------------------------------
 Center     Atomic      Atomic             Coordinates (Angstroms)
 Number     Number       Type             X           Y           Z
 ---------------------------------------------------------------------
      1          6           0       -1.938557    0.622517   -0.585723
      2          6           0       -1.136719    0.722888    0.718508
      3          6           0       -0.874770   -1.348802   -0.035298
      4          6           0        0.990761    0.249290   -0.560387
      5          6           0        0.620357   -1.237304   -0.388753
      6          6           0        0.332243    1.124614    0.521891
      7          8           0       -1.147300   -0.645896    1.160455
      8          8           0       -1.644828   -0.710563   -1.056760
      9          8           0        0.393634    2.501616    0.172478
     10          8           0        2.400837    0.430538   -0.569916
     11          8           0        1.434785   -1.751220    0.669518
     12          1           0       -1.633242    1.359010   -1.334274
     13          1           0       -3.014965    0.711350   -0.404729
     14          1           0       -1.617180    1.340509    1.479623
     15          1           0       -1.200459   -2.385373    0.086659
     16          1           0        0.630617    0.591264   -1.535365
     17          1           0        0.819594   -1.773394   -1.323996
     18          1           0        0.846733    0.944139    1.477930
     19          1           0        1.322931    2.681634   -0.050627
     20          1           0        2.732815   -0.190524    0.106363
     21          1           0        1.656252   -2.673623    0.470789
 ---------------------------------------------------------------------

 SCF Done:  E(RmPW1PW91) =  -610.652198469     A.U. after   12 cycles

      1  C    Isotropic =   131.5295   Anisotropy =    66.4481

      2  C    Isotropic =   120.2398   Anisotropy =    60.3422

      3  C    Isotropic =    92.1874   Anisotropy =    32.3233

      4  C    Isotropic =   124.3967   Anisotropy =    35.7720

      5  C    Isotropic =   123.5318   Anisotropy =    38.0584

      6  C    Isotropic =   122.1194   Anisotropy =    33.0879

      7  O    Isotropic =   239.8724   Anisotropy =    55.5446

      8  O    Isotropic =   262.6823   Anisotropy =   118.7957

      9  O    Isotropic =   303.7404   Anisotropy =    38.5885

     10  O    Isotropic =   308.7910   Anisotropy =    26.7421

     11  O    Isotropic =   310.0223   Anisotropy =    47.7014

     12  H    Isotropic =    27.4704   Anisotropy =     6.2454

     13  H    Isotropic =    27.8211   Anisotropy =    11.6025

     14  H    Isotropic =    27.0721   Anisotropy =     7.8276

     15  H    Isotropic =    26.0921   Anisotropy =     7.7399

     16  H    Isotropic =    27.9779   Anisotropy =     3.9664

     17  H    Isotropic =    27.7029   Anisotropy =     6.1348

     18  H    Isotropic =    27.7619   Anisotropy =     2.8044

     19  H    Isotropic =    29.1978   Anisotropy =    18.0668

     20  H    Isotropic =    28.7218   Anisotropy =    16.4024

     21  H    Isotropic =    29.5298   Anisotropy =    22.7086

 The electronic state is 1-A.
 Alpha  occ. eigenvalues --  -19.27804 -19.27339 -19.27042 -19.26362 -19.26191
 Alpha  occ. eigenvalues --  -10.35994 -10.31829 -10.31725 -10.31188 -10.31069
 Alpha  occ. eigenvalues --  -10.30647  -1.14401  -1.08820  -1.07166  -1.05423
 Alpha  occ. eigenvalues --   -1.04136  -0.82294  -0.81182  -0.70528  -0.68164
 Alpha  occ. eigenvalues --   -0.64783  -0.61717  -0.57271  -0.55753  -0.54400
 Alpha  occ. eigenvalues --   -0.52207  -0.51202  -0.48742  -0.47500  -0.46603
 Alpha  occ. eigenvalues --   -0.44315  -0.44032  -0.42729  -0.39540  -0.38949
 Alpha  occ. eigenvalues --   -0.37231  -0.36959  -0.36396  -0.33857  -0.32643
 Alpha  occ. eigenvalues --   -0.30551  -0.28688  -0.28070
 Alpha virt. eigenvalues --    0.00407   0.01465   0.01780   0.02434   0.04170
 Alpha virt. eigenvalues --    0.04593   0.05087   0.05447   0.05903   0.08351
 Alpha virt. eigenvalues --    0.08728   0.09362   0.10111   0.10610   0.11353

 Mulliken atomic charges:
              1
     1  C   -0.156232
     2  C    0.211048
     3  C   -0.124809
     4  C   -0.173416
     5  C    0.188836
     6  C   -0.046666
     7  O   -0.321456
     8  O   -0.363793
     9  O   -0.541675
    10  O   -0.560901
    11  O   -0.603290
    12  H    0.186337
    13  H    0.178078
    14  H    0.195908
    15  H    0.184360
    16  H    0.199410
    17  H    0.191963
    18  H    0.175043
    19  H    0.385237
    20  H    0.389270
    21  H    0.406748
 Sum of Mulliken atomic charges =   0.00000

 Dipole moment (field-independent basis, Debye):
    X=              0.7615    Y=             -2.2504    Z=             -0.3903  Tot=              2.4076
 Quadrupole moment (field-independent basis, Debye-Ang):
   XX=            -64.5413   YY=            -57.8521   ZZ=            -69.5170
   XY=             -6.4417   XZ=              1.0760   YZ=              1.8547

 Normal termination of Gaussian 09 at Fri Apr 12 11:08:20 2019.
