 Gaussian 09, Revision C.01,
 Gaussian 09:  EM64L-G09RevC.01 23-Sep-2011

 ------------------------------------------------
 # mpw1pw91/6-31+g** nmr scrf=(pcm,solvent=water)
 ------------------------------------------------

 99/9=1/99;
 -------
 comment
 -------
 Charge =  0 Multiplicity = 1

                         Standard orientation:
 ---------------------------------------------------------------------
 Center     Atomic      Atomic             Coordinates (Angstroms)
 Number     Number       Type             X           Y           Z
 ---------------------------------------------------------------------
      1          6           0       -2.121420   -0.667774    0.052180
      2          6           0       -1.219731    0.193761    0.927499
      3          6           0        0.076427   -1.372868    0.046989
      4          6           0        0.928216    0.994282   -0.249788
      5          6           0        1.079735   -0.481028   -0.714088
      6          6           0       -0.526161    1.355231    0.133155
      7          8           0       -0.240466   -0.801510    1.298384
      8          8           0       -1.150683   -1.418980   -0.702144
      9          8           0       -1.281958    1.790611   -0.995720
     10          8           0        1.737069    1.247814    0.890713
     11          8           0        2.434261   -0.833332   -0.442043
     12          1           0       -2.756770   -0.112227   -0.637843
     13          1           0       -2.736755   -1.336002    0.665810
     14          1           0       -1.695401    0.546479    1.842956
     15          1           0        0.460217   -2.385460    0.212466
     16          1           0        1.224542    1.658959   -1.074400
     17          1           0        0.870580   -0.565691   -1.787552
     18          1           0       -0.460940    2.233450    0.779767
     19          1           0       -1.254560    1.091353   -1.669645
     20          1           0        2.465973    0.602583    0.847900
     21          1           0        2.594925   -1.739887   -0.748657
 ---------------------------------------------------------------------

 SCF Done:  E(RmPW1PW91) =  -610.637493793     A.U. after   12 cycles

      1  C    Isotropic =   132.7921   Anisotropy =    58.1634

      2  C    Isotropic =   119.5503   Anisotropy =    49.4554

      3  C    Isotropic =    91.5261   Anisotropy =    29.9575

      4  C    Isotropic =   125.7386   Anisotropy =    53.8466

      5  C    Isotropic =   123.9332   Anisotropy =    43.4480

      6  C    Isotropic =   126.4023   Anisotropy =    55.8005

      7  O    Isotropic =   249.2764   Anisotropy =    63.7451

      8  O    Isotropic =   258.0045   Anisotropy =   114.1077

      9  O    Isotropic =   289.2477   Anisotropy =    19.0228

     10  O    Isotropic =   309.5772   Anisotropy =    45.5391

     11  O    Isotropic =   300.6288   Anisotropy =    52.3175

     12  H    Isotropic =    27.3138   Anisotropy =     6.7361

     13  H    Isotropic =    28.0930   Anisotropy =    12.0543

     14  H    Isotropic =    26.7669   Anisotropy =     8.1106

     15  H    Isotropic =    26.4239   Anisotropy =     6.8149

     16  H    Isotropic =    27.4249   Anisotropy =     7.2463

     17  H    Isotropic =    27.8320   Anisotropy =     4.8272

     18  H    Isotropic =    27.4190   Anisotropy =     5.7098

     19  H    Isotropic =    30.2233   Anisotropy =    13.3866

     20  H    Isotropic =    28.2369   Anisotropy =    18.0040

     21  H    Isotropic =    29.4106   Anisotropy =    19.6642

 The electronic state is 1-A.
 Alpha  occ. eigenvalues --  -19.27689 -19.27666 -19.27232 -19.26718 -19.25331
 Alpha  occ. eigenvalues --  -10.36019 -10.31802 -10.31769 -10.31671 -10.31472
 Alpha  occ. eigenvalues --  -10.30555  -1.14454  -1.08938  -1.07255  -1.05319
 Alpha  occ. eigenvalues --   -1.04033  -0.82002  -0.80551  -0.71347  -0.68265
 Alpha  occ. eigenvalues --   -0.64985  -0.60618  -0.57701  -0.56209  -0.55230
 Alpha  occ. eigenvalues --   -0.52198  -0.49813  -0.49170  -0.47116  -0.46836
 Alpha  occ. eigenvalues --   -0.45225  -0.43042  -0.41729  -0.39925  -0.39478
 Alpha  occ. eigenvalues --   -0.37811  -0.37111  -0.35936  -0.33149  -0.32176
 Alpha  occ. eigenvalues --   -0.31263  -0.29581  -0.26946
 Alpha virt. eigenvalues --    0.00591   0.00693   0.02301   0.02789   0.04032
 Alpha virt. eigenvalues --    0.04342   0.05038   0.05226   0.05540   0.08165
 Alpha virt. eigenvalues --    0.08421   0.09249   0.09452   0.10668   0.11549

 Mulliken atomic charges:
              1
     1  C   -0.235542
     2  C    0.322084
     3  C   -0.060374
     4  C   -0.069627
     5  C    0.062119
     6  C   -0.102156
     7  O   -0.325153
     8  O   -0.403727
     9  O   -0.504044
    10  O   -0.561230
    11  O   -0.602925
    12  H    0.186999
    13  H    0.177879
    14  H    0.191469
    15  H    0.181584
    16  H    0.176366
    17  H    0.192780
    18  H    0.186951
    19  H    0.377414
    20  H    0.401339
    21  H    0.407797
 Sum of Mulliken atomic charges =   0.00000

 Dipole moment (field-independent basis, Debye):
    X=             -0.6267    Y=             -3.1480    Z=             -2.0639  Tot=              3.8161
 Quadrupole moment (field-independent basis, Debye-Ang):
   XX=            -61.4426   YY=            -67.7183   ZZ=            -65.2922
   XY=             -6.1731   XZ=             -6.6202   YZ=              2.0248

 Normal termination of Gaussian 09 at Fri Apr 12 11:21:53 2019.
