 Gaussian 09, Revision C.01,
 Gaussian 09:  EM64L-G09RevC.01 23-Sep-2011

 -----------------------------------------------------------
 # B3LYP/6-31+G** test scrf=(pcm,solvent=water,smd,dovacuum)
 -----------------------------------------------------------

 99/5=1,9=1/99;
 -------
 comment
 -------
 Charge =  0 Multiplicity = 1

                         Standard orientation:
 ---------------------------------------------------------------------
 Center     Atomic      Atomic             Coordinates (Angstroms)
 Number     Number       Type             X           Y           Z
 ---------------------------------------------------------------------
      1          6           0       -1.878141    0.759272   -0.605074
      2          6           0       -1.081207    0.805852    0.705562
      3          6           0       -0.984415   -1.285817   -0.026316
      4          6           0        1.007492    0.153890   -0.541626
      5          6           0        0.512072   -1.301812   -0.375109
      6          6           0        0.416797    1.089971    0.518683
      7          8           0       -1.209410   -0.550809    1.159900
      8          8           0       -1.693096   -0.598086   -1.060242
      9          8           0        0.581465    2.454829    0.156504
     10          8           0        2.433791    0.215972   -0.398512
     11          8           0        1.218488   -1.953153    0.668096
     12          1           0       -1.507258    1.460341   -1.358214
     13          1           0       -2.944469    0.940240   -0.433062
     14          1           0       -1.512547    1.471066    1.455652
     15          1           0       -1.392760   -2.291225    0.104035
     16          1           0        0.714696    0.524416   -1.529859
     17          1           0        0.643426   -1.838773   -1.328359
     18          1           0        0.909948    0.879302    1.478611
     19          1           0        1.527645    2.577215   -0.029728
     20          1           0        2.836900   -0.021980   -1.249628
     21          1           0        2.118931   -1.578771    0.627860
 ---------------------------------------------------------------------

 SCF Done:  E(RB3LYP) =  -610.810123386     A.U. after   12 cycles

 The electronic state is 1-A.
 Alpha  occ. eigenvalues --  -19.18487 -19.17707 -19.17657 -19.17105 -19.16680
 Alpha  occ. eigenvalues --  -10.29501 -10.25144 -10.24739 -10.24614 -10.24457
 Alpha  occ. eigenvalues --  -10.23953  -1.11296  -1.05586  -1.03864  -1.02314
 Alpha  occ. eigenvalues --   -1.01283  -0.79555  -0.78177  -0.67925  -0.66036
 Alpha  occ. eigenvalues --   -0.62279  -0.58204  -0.55258  -0.54195  -0.51434
 Alpha  occ. eigenvalues --   -0.50729  -0.48592  -0.47662  -0.45171  -0.44472
 Alpha  occ. eigenvalues --   -0.43326  -0.42354  -0.40567  -0.39048  -0.36936
 Alpha  occ. eigenvalues --   -0.36206  -0.34946  -0.34673  -0.31697  -0.30476
 Alpha  occ. eigenvalues --   -0.29150  -0.27579  -0.26929
 Alpha virt. eigenvalues --    0.00451   0.01424   0.02082   0.02678   0.04302
 Alpha virt. eigenvalues --    0.04798   0.05421   0.05616   0.05860   0.08559
 Alpha virt. eigenvalues --    0.08968   0.09414   0.10232   0.10635   0.11643

 Mulliken atomic charges:
              1
     1  C   -0.125013
     2  C    0.237159
     3  C   -0.001673
     4  C   -0.070360
     5  C    0.258467
     6  C   -0.028856
     7  O   -0.401452
     8  O   -0.437433
     9  O   -0.611340
    10  O   -0.668604
    11  O   -0.614139
    12  H    0.178535
    13  H    0.166645
    14  H    0.182298
    15  H    0.171046
    16  H    0.190855
    17  H    0.161419
    18  H    0.166599
    19  H    0.408504
    20  H    0.425760
    21  H    0.411582
 Sum of Mulliken atomic charges =   0.00000

 Dipole moment (field-independent basis, Debye):
    X=              2.7554    Y=              1.7675    Z=             -3.5286  Tot=              4.8133
 Quadrupole moment (field-independent basis, Debye-Ang):
   XX=            -58.0683   YY=            -71.2952   ZZ=            -66.0553
   XY=             -1.5269   XZ=             -7.2519   YZ=              3.3326

 Normal termination of Gaussian 09 at Mon Apr 15 18:22:39 2019.
