 Gaussian 09, Revision C.01,
 Gaussian 09:  EM64L-G09RevC.01 23-Sep-2011

 ------------------------------------------------
 # mpw1pw91/6-31+g** nmr scrf=(pcm,solvent=water)
 ------------------------------------------------

 99/9=1/99;
 -------
 comment
 -------
 Charge =  0 Multiplicity = 1

                         Standard orientation:
 ---------------------------------------------------------------------
 Center     Atomic      Atomic             Coordinates (Angstroms)
 Number     Number       Type             X           Y           Z
 ---------------------------------------------------------------------
      1          6           0       -2.135950   -0.553939   -0.074948
      2          6           0       -1.240052    0.262561    0.864079
      3          6           0       -0.006195   -1.411680    0.100942
      4          6           0        0.980437    0.900580   -0.253518
      5          6           0        1.015043   -0.579762   -0.716501
      6          6           0       -0.429578    1.390960    0.163521
      7          8           0       -0.331963   -0.759620    1.316406
      8          8           0       -1.233218   -1.529659   -0.622184
      9          8           0       -1.181454    1.855121   -0.954652
     10          8           0        1.876030    0.994418    0.868485
     11          8           0        2.330737   -1.093085   -0.597512
     12          1           0       -2.578799    0.033112   -0.879592
     13          1           0       -2.924298   -1.059580    0.495159
     14          1           0       -1.776416    0.642056    1.734403
     15          1           0        0.393679   -2.403943    0.327526
     16          1           0        1.342892    1.539125   -1.067382
     17          1           0        0.726738   -0.646540   -1.769995
     18          1           0       -0.273720    2.205493    0.882456
     19          1           0       -0.783267    2.688699   -1.252723
     20          1           0        2.381856    1.816813    0.783064
     21          1           0        2.708039   -0.604958    0.161293
 ---------------------------------------------------------------------

 SCF Done:  E(RmPW1PW91) =  -610.641180242     A.U. after   12 cycles

      1  C    Isotropic =   134.4117   Anisotropy =    66.0931

      2  C    Isotropic =   120.9508   Anisotropy =    53.9502

      3  C    Isotropic =    88.8425   Anisotropy =    26.7482

      4  C    Isotropic =   124.4218   Anisotropy =    53.9166

      5  C    Isotropic =   122.9176   Anisotropy =    43.5620

      6  C    Isotropic =   124.9544   Anisotropy =    48.5922

      7  O    Isotropic =   243.4599   Anisotropy =    65.1419

      8  O    Isotropic =   259.5164   Anisotropy =   125.3904

      9  O    Isotropic =   294.7665   Anisotropy =    80.9804

     10  O    Isotropic =   298.5153   Anisotropy =    29.3881

     11  O    Isotropic =   300.9661   Anisotropy =    41.7816

     12  H    Isotropic =    27.1531   Anisotropy =     6.3049

     13  H    Isotropic =    28.0934   Anisotropy =    11.7332

     14  H    Isotropic =    26.7654   Anisotropy =     8.3723

     15  H    Isotropic =    26.2523   Anisotropy =     6.2620

     16  H    Isotropic =    27.8065   Anisotropy =     6.5872

     17  H    Isotropic =    27.9254   Anisotropy =     4.8875

     18  H    Isotropic =    27.1356   Anisotropy =     5.4558

     19  H    Isotropic =    29.9675   Anisotropy =    19.9947

     20  H    Isotropic =    29.3045   Anisotropy =    21.4830

     21  H    Isotropic =    27.4492   Anisotropy =    16.4052

 The electronic state is 1-A.
 Alpha  occ. eigenvalues --  -19.27420 -19.27246 -19.26751 -19.26387 -19.25487
 Alpha  occ. eigenvalues --  -10.35230 -10.31888 -10.31734 -10.31692 -10.30767
 Alpha  occ. eigenvalues --  -10.29975  -1.13905  -1.08694  -1.07199  -1.05174
 Alpha  occ. eigenvalues --   -1.03675  -0.81576  -0.80461  -0.70171  -0.68677
 Alpha  occ. eigenvalues --   -0.64154  -0.59926  -0.57640  -0.56846  -0.54422
 Alpha  occ. eigenvalues --   -0.52087  -0.49896  -0.48975  -0.47369  -0.45926
 Alpha  occ. eigenvalues --   -0.43931  -0.43041  -0.42090  -0.40051  -0.38001
 Alpha  occ. eigenvalues --   -0.37008  -0.36489  -0.36219  -0.33949  -0.32700
 Alpha  occ. eigenvalues --   -0.30046  -0.29090  -0.27029
 Alpha virt. eigenvalues --    0.00288   0.01022   0.02100   0.02810   0.04144
 Alpha virt. eigenvalues --    0.04583   0.04693   0.05018   0.06125   0.07830
 Alpha virt. eigenvalues --    0.08784   0.08948   0.09958   0.10862   0.11546

 Mulliken atomic charges:
              1
     1  C   -0.191995
     2  C    0.268840
     3  C   -0.005541
     4  C   -0.047420
     5  C    0.040696
     6  C   -0.119019
     7  O   -0.325316
     8  O   -0.390870
     9  O   -0.552660
    10  O   -0.620252
    11  O   -0.546107
    12  H    0.192288
    13  H    0.169995
    14  H    0.192588
    15  H    0.181493
    16  H    0.181870
    17  H    0.190021
    18  H    0.178955
    19  H    0.398289
    20  H    0.411904
    21  H    0.392243
 Sum of Mulliken atomic charges =   0.00000

 Dipole moment (field-independent basis, Debye):
    X=              0.1143    Y=              6.6241    Z=              0.3373  Tot=              6.6336
 Quadrupole moment (field-independent basis, Debye-Ang):
   XX=            -63.5975   YY=            -56.7809   ZZ=            -68.8688
   XY=              6.8821   XZ=             -1.7714   YZ=             -2.8488

 Normal termination of Gaussian 09 at Fri Apr 12 11:17:41 2019.
