 Gaussian 09, Revision C.01,
 Gaussian 09:  EM64L-G09RevC.01 23-Sep-2011

 -----------------------------------------------------------
 # B3LYP/6-31+G** test scrf=(pcm,solvent=water,smd,dovacuum)
 -----------------------------------------------------------

 99/5=1,9=1/99;
 -------
 comment
 -------
 Charge =  0 Multiplicity = 1

                         Standard orientation:
 ---------------------------------------------------------------------
 Center     Atomic      Atomic             Coordinates (Angstroms)
 Number     Number       Type             X           Y           Z
 ---------------------------------------------------------------------
      1          6           0       -1.861869    0.841908   -0.584345
      2          6           0       -1.033625    0.860766    0.709431
      3          6           0       -1.043284   -1.236439   -0.018961
      4          6           0        1.006006    0.096941   -0.569912
      5          6           0        0.448004   -1.328113   -0.381264
      6          6           0        0.483194    1.054755    0.510462
      7          8           0       -1.223730   -0.490345    1.167525
      8          8           0       -1.729308   -0.516733   -1.047293
      9          8           0        0.876478    2.398578    0.246207
     10          8           0        2.427850   -0.002186   -0.535901
     11          8           0        1.124192   -2.000388    0.669025
     12          1           0       -1.502981    1.528737   -1.358142
     13          1           0       -2.916402    1.057876   -0.382750
     14          1           0       -1.419290    1.546880    1.465452
     15          1           0       -1.496572   -2.221458    0.116714
     16          1           0        0.683172    0.466060   -1.554958
     17          1           0        0.549155   -1.881798   -1.327381
     18          1           0        0.960743    0.799709    1.461218
     19          1           0        0.527619    2.659460   -0.623080
     20          1           0        2.769989    0.896502   -0.390014
     21          1           0        2.050159   -1.702292    0.603974
 ---------------------------------------------------------------------

 SCF Done:  E(RB3LYP) =  -610.809627583     A.U. after   12 cycles

 The electronic state is 1-A.
 Alpha  occ. eigenvalues --  -19.18508 -19.17705 -19.17481 -19.17432 -19.16768
 Alpha  occ. eigenvalues --  -10.29577 -10.25153 -10.24754 -10.24718 -10.24664
 Alpha  occ. eigenvalues --  -10.24085  -1.11335  -1.05719  -1.03938  -1.02390
 Alpha  occ. eigenvalues --   -1.01316  -0.79342  -0.78315  -0.68266  -0.65823
 Alpha  occ. eigenvalues --   -0.62554  -0.59031  -0.55848  -0.52810  -0.51689
 Alpha  occ. eigenvalues --   -0.50964  -0.49260  -0.46961  -0.45307  -0.44385
 Alpha  occ. eigenvalues --   -0.42611  -0.42232  -0.40877  -0.39124  -0.37413
 Alpha  occ. eigenvalues --   -0.36737  -0.35196  -0.34256  -0.32397  -0.30196
 Alpha  occ. eigenvalues --   -0.29102  -0.27854  -0.26617
 Alpha virt. eigenvalues --    0.00604   0.01456   0.02198   0.02537   0.04490
 Alpha virt. eigenvalues --    0.04845   0.05293   0.05375   0.06030   0.08676
 Alpha virt. eigenvalues --    0.09004   0.09666   0.09931   0.10594   0.11390

 Mulliken atomic charges:
              1
     1  C   -0.138083
     2  C    0.285227
     3  C   -0.010188
     4  C    0.064204
     5  C    0.189997
     6  C   -0.140409
     7  O   -0.406236
     8  O   -0.436503
     9  O   -0.593702
    10  O   -0.647772
    11  O   -0.613680
    12  H    0.177545
    13  H    0.167221
    14  H    0.181779
    15  H    0.171771
    16  H    0.180074
    17  H    0.162414
    18  H    0.179770
    19  H    0.403767
    20  H    0.412786
    21  H    0.410017
 Sum of Mulliken atomic charges =   0.00000

 Dipole moment (field-independent basis, Debye):
    X=             -0.3249    Y=              4.4559    Z=             -2.7580  Tot=              5.2504
 Quadrupole moment (field-independent basis, Debye-Ang):
   XX=            -65.5138   YY=            -66.2902   ZZ=            -68.7543
   XY=             -2.3429   XZ=             -0.8241   YZ=             -1.9481

 Normal termination of Gaussian 09 at Mon Apr 15 18:30:35 2019.
