 Gaussian 09, Revision C.01,
 Gaussian 09:  EM64L-G09RevC.01 23-Sep-2011

 -----------------------------------------------------------
 # B3LYP/6-31+G** test scrf=(pcm,solvent=water,smd,dovacuum)
 -----------------------------------------------------------

 99/5=1,9=1/99;
 -------
 comment
 -------
 Charge =  0 Multiplicity = 1

                         Standard orientation:
 ---------------------------------------------------------------------
 Center     Atomic      Atomic             Coordinates (Angstroms)
 Number     Number       Type             X           Y           Z
 ---------------------------------------------------------------------
      1          6           0       -1.845515    0.835259   -0.600634
      2          6           0       -1.038904    0.852709    0.704177
      3          6           0       -1.037323   -1.243473   -0.017829
      4          6           0        1.006412    0.098476   -0.563678
      5          6           0        0.456440   -1.326841   -0.371897
      6          6           0        0.475748    1.060441    0.503741
      7          8           0       -1.226106   -0.496372    1.167157
      8          8           0       -1.724193   -0.531529   -1.049513
      9          8           0        0.811311    2.373740    0.060240
     10          8           0        2.429441    0.005060   -0.523670
     11          8           0        1.130627   -1.995487    0.683272
     12          1           0       -1.448202    1.516025   -1.359108
     13          1           0       -2.901847    1.064332   -0.424585
     14          1           0       -1.439098    1.536521    1.455896
     15          1           0       -1.484357   -2.231441    0.117962
     16          1           0        0.685827    0.469987   -1.546001
     17          1           0        0.565766   -1.882299   -1.316006
     18          1           0        0.968672    0.831506    1.457443
     19          1           0        0.759503    2.975252    0.820425
     20          1           0        2.767821    0.913573   -0.450837
     21          1           0        2.056122   -1.696184    0.621653
 ---------------------------------------------------------------------

 SCF Done:  E(RB3LYP) =  -610.809657870     A.U. after   12 cycles

 The electronic state is 1-A.
 Alpha  occ. eigenvalues --  -19.18478 -19.17669 -19.17401 -19.17385 -19.16772
 Alpha  occ. eigenvalues --  -10.29543 -10.25021 -10.24704 -10.24674 -10.24632
 Alpha  occ. eigenvalues --  -10.23943  -1.11278  -1.05673  -1.03891  -1.02364
 Alpha  occ. eigenvalues --   -1.01261  -0.79414  -0.78390  -0.68040  -0.65666
 Alpha  occ. eigenvalues --   -0.62833  -0.58431  -0.54905  -0.54532  -0.51076
 Alpha  occ. eigenvalues --   -0.50487  -0.49522  -0.46903  -0.45644  -0.44300
 Alpha  occ. eigenvalues --   -0.43342  -0.42268  -0.40043  -0.38707  -0.37882
 Alpha  occ. eigenvalues --   -0.36487  -0.35128  -0.34717  -0.31655  -0.30074
 Alpha  occ. eigenvalues --   -0.29080  -0.27843  -0.26880
 Alpha virt. eigenvalues --    0.00598   0.01454   0.01902   0.02780   0.04245
 Alpha virt. eigenvalues --    0.04836   0.05136   0.05687   0.06092   0.08476
 Alpha virt. eigenvalues --    0.08972   0.09712   0.09905   0.10645   0.11609

 Mulliken atomic charges:
              1
     1  C   -0.128985
     2  C    0.280638
     3  C   -0.018168
     4  C    0.009123
     5  C    0.227178
     6  C   -0.092452
     7  O   -0.402898
     8  O   -0.435819
     9  O   -0.627995
    10  O   -0.650629
    11  O   -0.617576
    12  H    0.177893
    13  H    0.166252
    14  H    0.181453
    15  H    0.171407
    16  H    0.179588
    17  H    0.162752
    18  H    0.176747
    19  H    0.418307
    20  H    0.412397
    21  H    0.410789
 Sum of Mulliken atomic charges =   0.00000

 Dipole moment (field-independent basis, Debye):
    X=              0.4379    Y=              5.3520    Z=              0.7767  Tot=              5.4257
 Quadrupole moment (field-independent basis, Debye-Ang):
   XX=            -64.7815   YY=            -61.4959   ZZ=            -68.1556
   XY=              0.2802   XZ=              1.1369   YZ=              8.9244

 Normal termination of Gaussian 09 at Mon Apr 15 18:43:19 2019.
