 Gaussian 09, Revision C.01,
 Gaussian 09:  EM64L-G09RevC.01 23-Sep-2011

 ------------------------------------------------
 # mpw1pw91/6-31+g** nmr scrf=(pcm,solvent=water)
 ------------------------------------------------

 99/9=1/99;
 -------
 comment
 -------
 Charge =  0 Multiplicity = 1

                         Standard orientation:
 ---------------------------------------------------------------------
 Center     Atomic      Atomic             Coordinates (Angstroms)
 Number     Number       Type             X           Y           Z
 ---------------------------------------------------------------------
      1          6           0       -1.878141    0.759272   -0.605074
      2          6           0       -1.081207    0.805852    0.705562
      3          6           0       -0.984415   -1.285817   -0.026316
      4          6           0        1.007492    0.153890   -0.541626
      5          6           0        0.512072   -1.301812   -0.375109
      6          6           0        0.416797    1.089971    0.518683
      7          8           0       -1.209410   -0.550809    1.159900
      8          8           0       -1.693096   -0.598086   -1.060242
      9          8           0        0.581465    2.454829    0.156504
     10          8           0        2.433791    0.215972   -0.398512
     11          8           0        1.218488   -1.953153    0.668096
     12          1           0       -1.507258    1.460341   -1.358214
     13          1           0       -2.944469    0.940240   -0.433062
     14          1           0       -1.512547    1.471066    1.455652
     15          1           0       -1.392760   -2.291225    0.104035
     16          1           0        0.714696    0.524416   -1.529859
     17          1           0        0.643426   -1.838773   -1.328359
     18          1           0        0.909948    0.879302    1.478611
     19          1           0        1.527645    2.577215   -0.029728
     20          1           0        2.836900   -0.021980   -1.249628
     21          1           0        2.118931   -1.578771    0.627860
 ---------------------------------------------------------------------

 SCF Done:  E(RmPW1PW91) =  -610.651804962     A.U. after   12 cycles

      1  C    Isotropic =   131.5436   Anisotropy =    65.4575

      2  C    Isotropic =   120.1250   Anisotropy =    61.0510

      3  C    Isotropic =    92.6910   Anisotropy =    33.5992

      4  C    Isotropic =   122.0906   Anisotropy =    34.3888

      5  C    Isotropic =   124.0500   Anisotropy =    37.1909

      6  C    Isotropic =   124.5745   Anisotropy =    37.4544

      7  O    Isotropic =   240.1219   Anisotropy =    55.5976

      8  O    Isotropic =   264.6672   Anisotropy =   118.7866

      9  O    Isotropic =   302.9445   Anisotropy =    39.9450

     10  O    Isotropic =   311.6216   Anisotropy =    91.3674

     11  O    Isotropic =   309.8562   Anisotropy =    23.8245

     12  H    Isotropic =    27.4935   Anisotropy =     6.1794

     13  H    Isotropic =    27.8058   Anisotropy =    11.5856

     14  H    Isotropic =    27.0417   Anisotropy =     7.7761

     15  H    Isotropic =    25.9972   Anisotropy =     7.8020

     16  H    Isotropic =    27.7571   Anisotropy =     4.3959

     17  H    Isotropic =    27.8150   Anisotropy =     6.6623

     18  H    Isotropic =    27.6118   Anisotropy =     2.9075

     19  H    Isotropic =    29.2178   Anisotropy =    18.2022

     20  H    Isotropic =    29.9219   Anisotropy =    22.3258

     21  H    Isotropic =    28.4660   Anisotropy =    17.1648

 The electronic state is 1-A.
 Alpha  occ. eigenvalues --  -19.27796 -19.27776 -19.27014 -19.26511 -19.25823
 Alpha  occ. eigenvalues --  -10.35987 -10.31914 -10.31768 -10.31429 -10.31126
 Alpha  occ. eigenvalues --  -10.30668  -1.14423  -1.09126  -1.06988  -1.05577
 Alpha  occ. eigenvalues --   -1.04139  -0.82505  -0.81134  -0.70607  -0.68732
 Alpha  occ. eigenvalues --   -0.64662  -0.60450  -0.57689  -0.56437  -0.53636
 Alpha  occ. eigenvalues --   -0.52752  -0.50717  -0.49718  -0.47121  -0.46360
 Alpha  occ. eigenvalues --   -0.45274  -0.44193  -0.42377  -0.40552  -0.38637
 Alpha  occ. eigenvalues --   -0.37635  -0.36522  -0.36307  -0.33530  -0.32033
 Alpha  occ. eigenvalues --   -0.30519  -0.29120  -0.28255
 Alpha virt. eigenvalues --    0.00277   0.01341   0.01900   0.02598   0.04115
 Alpha virt. eigenvalues --    0.04688   0.05168   0.05499   0.05708   0.08380
 Alpha virt. eigenvalues --    0.08829   0.09287   0.10052   0.10486   0.11425

 Mulliken atomic charges:
              1
     1  C   -0.170501
     2  C    0.228077
     3  C   -0.131345
     4  C   -0.134215
     5  C    0.236506
     6  C   -0.125896
     7  O   -0.319964
     8  O   -0.365348
     9  O   -0.543839
    10  O   -0.616707
    11  O   -0.545077
    12  H    0.186304
    13  H    0.178398
    14  H    0.197241
    15  H    0.184913
    16  H    0.200865
    17  H    0.173438
    18  H    0.180803
    19  H    0.386682
    20  H    0.407935
    21  H    0.391730
 Sum of Mulliken atomic charges =   0.00000

 Dipole moment (field-independent basis, Debye):
    X=              2.4875    Y=              1.6240    Z=             -3.1410  Tot=              4.3233
 Quadrupole moment (field-independent basis, Debye-Ang):
   XX=            -57.6941   YY=            -70.0577   ZZ=            -65.4398
   XY=             -1.3030   XZ=             -6.7004   YZ=              2.9869

 Normal termination of Gaussian 09 at Fri Apr 12 11:06:55 2019.
