 Gaussian 09, Revision C.01,
 Gaussian 09:  EM64L-G09RevC.01 23-Sep-2011

 ------------------------------------------------
 # mpw1pw91/6-31+g** nmr scrf=(pcm,solvent=water)
 ------------------------------------------------

 99/9=1/99;
 -------
 comment
 -------
 Charge =  0 Multiplicity = 1

                         Standard orientation:
 ---------------------------------------------------------------------
 Center     Atomic      Atomic             Coordinates (Angstroms)
 Number     Number       Type             X           Y           Z
 ---------------------------------------------------------------------
      1          6           0       -1.881608    0.792455   -0.547658
      2          6           0       -1.052630    0.781453    0.741074
      3          6           0       -0.975955   -1.279997   -0.102681
      4          6           0        1.020177    0.168513   -0.576672
      5          6           0        0.527597   -1.284948   -0.419695
      6          6           0        0.437911    1.080857    0.521900
      7          8           0       -1.160640   -0.603792    1.135018
      8          8           0       -1.691066   -0.536686   -1.080127
      9          8           0        0.586226    2.453850    0.188128
     10          8           0        2.441260    0.227961   -0.579888
     11          8           0        1.251656   -1.943292    0.623051
     12          1           0       -1.534812    1.536222   -1.269878
     13          1           0       -2.945809    0.948504   -0.343185
     14          1           0       -1.470365    1.401679    1.535720
     15          1           0       -1.389140   -2.287869   -0.013581
     16          1           0        0.693937    0.554233   -1.547637
     17          1           0        0.729388   -1.847591   -1.335679
     18          1           0        0.955521    0.860470    1.468865
     19          1           0        1.522718    2.577969   -0.042675
     20          1           0        2.721493   -0.415760    0.098225
     21          1           0        0.844632   -1.662185    1.462769
 ---------------------------------------------------------------------

 SCF Done:  E(RmPW1PW91) =  -610.653532190     A.U. after   12 cycles

      1  C    Isotropic =   131.3203   Anisotropy =    67.1936

      2  C    Isotropic =   120.1680   Anisotropy =    61.1652

      3  C    Isotropic =    92.8521   Anisotropy =    33.1388

      4  C    Isotropic =   123.4929   Anisotropy =    32.4935

      5  C    Isotropic =   123.0876   Anisotropy =    35.5482

      6  C    Isotropic =   122.0954   Anisotropy =    32.3282

      7  O    Isotropic =   242.5463   Anisotropy =    54.7210

      8  O    Isotropic =   265.2687   Anisotropy =   115.8652

      9  O    Isotropic =   304.8741   Anisotropy =    40.3043

     10  O    Isotropic =   307.4050   Anisotropy =    28.7760

     11  O    Isotropic =   305.9758   Anisotropy =    58.1676

     12  H    Isotropic =    27.3904   Anisotropy =     6.3458

     13  H    Isotropic =    27.7401   Anisotropy =    11.5504

     14  H    Isotropic =    27.0635   Anisotropy =     7.8733

     15  H    Isotropic =    26.0263   Anisotropy =     8.0570

     16  H    Isotropic =    28.0544   Anisotropy =     3.8312

     17  H    Isotropic =    27.8597   Anisotropy =     6.8613

     18  H    Isotropic =    27.8664   Anisotropy =     2.7649

     19  H    Isotropic =    29.2371   Anisotropy =    18.2439

     20  H    Isotropic =    28.9520   Anisotropy =    16.0041

     21  H    Isotropic =    30.0394   Anisotropy =    15.1062

 The electronic state is 1-A.
 Alpha  occ. eigenvalues --  -19.28651 -19.27462 -19.27367 -19.26587 -19.26376
 Alpha  occ. eigenvalues --  -10.36513 -10.32256 -10.31677 -10.31477 -10.31258
 Alpha  occ. eigenvalues --  -10.30932  -1.14943  -1.08892  -1.07383  -1.05707
 Alpha  occ. eigenvalues --   -1.04609  -0.82711  -0.81095  -0.71015  -0.68550
 Alpha  occ. eigenvalues --   -0.65456  -0.61499  -0.58191  -0.55313  -0.55082
 Alpha  occ. eigenvalues --   -0.52220  -0.50338  -0.49798  -0.47614  -0.47121
 Alpha  occ. eigenvalues --   -0.44755  -0.44147  -0.41661  -0.41038  -0.39700
 Alpha  occ. eigenvalues --   -0.37598  -0.37306  -0.36855  -0.33835  -0.32811
 Alpha  occ. eigenvalues --   -0.30996  -0.28998  -0.28370
 Alpha virt. eigenvalues --    0.00690   0.01420   0.02072   0.02179   0.04079
 Alpha virt. eigenvalues --    0.04675   0.04905   0.05404   0.05904   0.08393
 Alpha virt. eigenvalues --    0.08991   0.09241   0.10005   0.10561   0.11191

 Mulliken atomic charges:
              1
     1  C   -0.170210
     2  C    0.238679
     3  C   -0.143748
     4  C   -0.196472
     5  C    0.197009
     6  C   -0.076070
     7  O   -0.363406
     8  O   -0.361138
     9  O   -0.540542
    10  O   -0.540219
    11  O   -0.550141
    12  H    0.190694
    13  H    0.181631
    14  H    0.201218
    15  H    0.193727
    16  H    0.200867
    17  H    0.194638
    18  H    0.177448
    19  H    0.386962
    20  H    0.388541
    21  H    0.390534
 Sum of Mulliken atomic charges =   0.00000

 Dipole moment (field-independent basis, Debye):
    X=             -0.7156    Y=              0.4591    Z=              1.4521  Tot=              1.6827
 Quadrupole moment (field-independent basis, Debye-Ang):
   XX=            -67.2737   YY=            -68.1867   ZZ=            -64.7512
   XY=             -0.0873   XZ=              2.1976   YZ=              0.1193

 Normal termination of Gaussian 09 at Fri Apr 12 11:03:53 2019.
