 Gaussian 09, Revision C.01,
 Gaussian 09:  EM64L-G09RevC.01 23-Sep-2011

 -----------------------------------------------------------
 # B3LYP/6-31+G** test scrf=(pcm,solvent=water,smd,dovacuum)
 -----------------------------------------------------------

 99/5=1,9=1/99;
 -------
 comment
 -------
 Charge =  0 Multiplicity = 1

                         Standard orientation:
 ---------------------------------------------------------------------
 Center     Atomic      Atomic             Coordinates (Angstroms)
 Number     Number       Type             X           Y           Z
 ---------------------------------------------------------------------
      1          6           0       -1.748900    1.007890   -0.593077
      2          6           0       -0.967637    0.910502    0.723226
      3          6           0       -1.120684   -1.149107   -0.078443
      4          6           0        1.032887    0.022471   -0.536341
      5          6           0        0.382605   -1.359165   -0.374951
      6          6           0        0.561345    1.001397    0.546137
      7          8           0       -1.278011   -0.434099    1.131198
      8          8           0       -1.720549   -0.345541   -1.096494
      9          8           0        0.989301    2.295217    0.120197
     10          8           0        2.448232   -0.097654   -0.546387
     11          8           0        1.009033   -2.051864    0.697400
     12          1           0       -1.288041    1.686012   -1.316632
     13          1           0       -2.788557    1.307827   -0.423916
     14          1           0       -1.323603    1.597604    1.494061
     15          1           0       -1.658004   -2.098580    0.006742
     16          1           0        0.690365    0.418953   -1.502855
     17          1           0        0.492100   -1.917590   -1.315676
     18          1           0        1.030764    0.728598    1.499618
     19          1           0        0.993899    2.884476    0.891358
     20          1           0        2.781892    0.813089   -0.615817
     21          1           0        0.647440   -2.952784    0.716499
 ---------------------------------------------------------------------

 SCF Done:  E(RB3LYP) =  -610.808645979     A.U. after   12 cycles

 The electronic state is 1-A.
 Alpha  occ. eigenvalues --  -19.18405 -19.17645 -19.17310 -19.17036 -19.16889
 Alpha  occ. eigenvalues --  -10.29423 -10.24957 -10.24775 -10.24563 -10.24540
 Alpha  occ. eigenvalues --  -10.23905  -1.11198  -1.05221  -1.03811  -1.02480
 Alpha  occ. eigenvalues --   -1.01200  -0.79314  -0.78428  -0.67949  -0.65153
 Alpha  occ. eigenvalues --   -0.62888  -0.58062  -0.55077  -0.54348  -0.52586
 Alpha  occ. eigenvalues --   -0.49502  -0.49266  -0.46853  -0.45713  -0.44171
 Alpha  occ. eigenvalues --   -0.42955  -0.41620  -0.40573  -0.38558  -0.37163
 Alpha  occ. eigenvalues --   -0.36590  -0.35263  -0.33943  -0.32074  -0.30459
 Alpha  occ. eigenvalues --   -0.29185  -0.27714  -0.26308
 Alpha virt. eigenvalues --    0.00584   0.01420   0.01810   0.02579   0.04280
 Alpha virt. eigenvalues --    0.04510   0.05186   0.05816   0.05951   0.08505
 Alpha virt. eigenvalues --    0.08810   0.09641   0.10030   0.10699   0.11502

 Mulliken atomic charges:
              1
     1  C   -0.124853
     2  C    0.280307
     3  C   -0.037621
     4  C   -0.064902
     5  C    0.263968
     6  C   -0.052127
     7  O   -0.397426
     8  O   -0.436936
     9  O   -0.631406
    10  O   -0.628992
    11  O   -0.636690
    12  H    0.177990
    13  H    0.165950
    14  H    0.181129
    15  H    0.170909
    16  H    0.180004
    17  H    0.169150
    18  H    0.175461
    19  H    0.418272
    20  H    0.407804
    21  H    0.420008
 Sum of Mulliken atomic charges =   0.00000

 Dipole moment (field-independent basis, Debye):
    X=             -2.0873    Y=              2.5830    Z=              0.8081  Tot=              3.4179
 Quadrupole moment (field-independent basis, Debye-Ang):
   XX=            -73.7289   YY=            -48.7403   ZZ=            -67.4791
   XY=              4.0506   XZ=             -0.6229   YZ=              6.6861

 Normal termination of Gaussian 09 at Mon Apr 15 18:14:41 2019.
