 Gaussian 09, Revision C.01,
 Gaussian 09:  EM64L-G09RevC.01 23-Sep-2011

 ------------------------------------------------
 # mpw1pw91/6-31+g** nmr scrf=(pcm,solvent=water)
 ------------------------------------------------

 99/9=1/99;
 -------
 comment
 -------
 Charge =  0 Multiplicity = 1

                         Standard orientation:
 ---------------------------------------------------------------------
 Center     Atomic      Atomic             Coordinates (Angstroms)
 Number     Number       Type             X           Y           Z
 ---------------------------------------------------------------------
      1          6           0       -1.845515    0.835259   -0.600634
      2          6           0       -1.038904    0.852709    0.704177
      3          6           0       -1.037323   -1.243473   -0.017829
      4          6           0        1.006412    0.098476   -0.563678
      5          6           0        0.456440   -1.326841   -0.371897
      6          6           0        0.475748    1.060441    0.503741
      7          8           0       -1.226106   -0.496372    1.167157
      8          8           0       -1.724193   -0.531529   -1.049513
      9          8           0        0.811311    2.373740    0.060240
     10          8           0        2.429441    0.005060   -0.523670
     11          8           0        1.130627   -1.995487    0.683272
     12          1           0       -1.448202    1.516025   -1.359108
     13          1           0       -2.901847    1.064332   -0.424585
     14          1           0       -1.439098    1.536521    1.455896
     15          1           0       -1.484357   -2.231441    0.117962
     16          1           0        0.685827    0.469987   -1.546001
     17          1           0        0.565766   -1.882299   -1.316006
     18          1           0        0.968672    0.831506    1.457443
     19          1           0        0.759503    2.975252    0.820425
     20          1           0        2.767821    0.913573   -0.450837
     21          1           0        2.056122   -1.696184    0.621653
 ---------------------------------------------------------------------

 SCF Done:  E(RmPW1PW91) =  -610.651778030     A.U. after   12 cycles

      1  C    Isotropic =   131.9297   Anisotropy =    66.2101

      2  C    Isotropic =   118.9220   Anisotropy =    60.7497

      3  C    Isotropic =    92.9818   Anisotropy =    33.9011

      4  C    Isotropic =   124.8927   Anisotropy =    35.8252

      5  C    Isotropic =   124.6688   Anisotropy =    41.3939

      6  C    Isotropic =   122.9318   Anisotropy =    34.3868

      7  O    Isotropic =   238.2754   Anisotropy =    52.4139

      8  O    Isotropic =   263.6674   Anisotropy =   119.0358

      9  O    Isotropic =   304.4776   Anisotropy =    56.1632

     10  O    Isotropic =   306.8696   Anisotropy =    30.1614

     11  O    Isotropic =   311.6846   Anisotropy =    22.8359

     12  H    Isotropic =    27.5016   Anisotropy =     6.1884

     13  H    Isotropic =    27.8123   Anisotropy =    11.6199

     14  H    Isotropic =    27.2078   Anisotropy =     7.5758

     15  H    Isotropic =    26.0280   Anisotropy =     7.8374

     16  H    Isotropic =    27.7635   Anisotropy =     4.3302

     17  H    Isotropic =    27.5838   Anisotropy =     6.7721

     18  H    Isotropic =    27.5949   Anisotropy =     2.6282

     19  H    Isotropic =    29.7640   Anisotropy =    20.8644

     20  H    Isotropic =    28.8988   Anisotropy =    18.2127

     21  H    Isotropic =    28.5132   Anisotropy =    17.1941

 The electronic state is 1-A.
 Alpha  occ. eigenvalues --  -19.27803 -19.27138 -19.27040 -19.27024 -19.25830
 Alpha  occ. eigenvalues --  -10.36007 -10.31865 -10.31603 -10.31560 -10.31220
 Alpha  occ. eigenvalues --  -10.30691  -1.14409  -1.09002  -1.07202  -1.05461
 Alpha  occ. eigenvalues --   -1.04120  -0.82424  -0.81255  -0.70756  -0.68283
 Alpha  occ. eigenvalues --   -0.65271  -0.60644  -0.57188  -0.56853  -0.53118
 Alpha  occ. eigenvalues --   -0.52556  -0.51664  -0.48918  -0.47587  -0.46160
 Alpha  occ. eigenvalues --   -0.45217  -0.44192  -0.41777  -0.40240  -0.39701
 Alpha  occ. eigenvalues --   -0.37873  -0.36595  -0.36378  -0.33255  -0.31703
 Alpha  occ. eigenvalues --   -0.30479  -0.29326  -0.28225
 Alpha virt. eigenvalues --    0.00471   0.01386   0.01730   0.02675   0.04108
 Alpha virt. eigenvalues --    0.04692   0.04876   0.05520   0.05980   0.08282
 Alpha virt. eigenvalues --    0.08848   0.09492   0.09782   0.10508   0.11384

 Mulliken atomic charges:
              1
     1  C   -0.171715
     2  C    0.254458
     3  C   -0.151405
     4  C   -0.036721
     5  C    0.228469
     6  C   -0.211528
     7  O   -0.320758
     8  O   -0.363789
     9  O   -0.563295
    10  O   -0.591187
    11  O   -0.552611
    12  H    0.185336
    13  H    0.178429
    14  H    0.195461
    15  H    0.185134
    16  H    0.189017
    17  H    0.173624
    18  H    0.192092
    19  H    0.396174
    20  H    0.393050
    21  H    0.391764
 Sum of Mulliken atomic charges =   0.00000

 Dipole moment (field-independent basis, Debye):
    X=              0.3767    Y=              4.8944    Z=              0.7576  Tot=              4.9670
 Quadrupole moment (field-independent basis, Debye-Ang):
   XX=            -63.9433   YY=            -60.9739   ZZ=            -67.4116
   XY=              0.3809   XZ=              1.0511   YZ=              8.1387

 Normal termination of Gaussian 09 at Fri Apr 12 11:06:38 2019.
