 Gaussian 09, Revision C.01,
 Gaussian 09:  EM64L-G09RevC.01 23-Sep-2011

 ------------------------------------------------
 # mpw1pw91/6-31+g** nmr scrf=(pcm,solvent=water)
 ------------------------------------------------

 99/9=1/99;
 -------
 comment
 -------
 Charge =  0 Multiplicity = 1

                         Standard orientation:
 ---------------------------------------------------------------------
 Center     Atomic      Atomic             Coordinates (Angstroms)
 Number     Number       Type             X           Y           Z
 ---------------------------------------------------------------------
      1          6           0       -1.861869    0.841908   -0.584345
      2          6           0       -1.033625    0.860766    0.709431
      3          6           0       -1.043284   -1.236439   -0.018961
      4          6           0        1.006006    0.096941   -0.569912
      5          6           0        0.448004   -1.328113   -0.381264
      6          6           0        0.483194    1.054755    0.510462
      7          8           0       -1.223730   -0.490345    1.167525
      8          8           0       -1.729308   -0.516733   -1.047293
      9          8           0        0.876478    2.398578    0.246207
     10          8           0        2.427850   -0.002186   -0.535901
     11          8           0        1.124192   -2.000388    0.669025
     12          1           0       -1.502981    1.528737   -1.358142
     13          1           0       -2.916402    1.057876   -0.382750
     14          1           0       -1.419290    1.546880    1.465452
     15          1           0       -1.496572   -2.221458    0.116714
     16          1           0        0.683172    0.466060   -1.554958
     17          1           0        0.549155   -1.881798   -1.327381
     18          1           0        0.960743    0.799709    1.461218
     19          1           0        0.527619    2.659460   -0.623080
     20          1           0        2.769989    0.896502   -0.390014
     21          1           0        2.050159   -1.702292    0.603974
 ---------------------------------------------------------------------

 SCF Done:  E(RmPW1PW91) =  -610.649879048     A.U. after   11 cycles

      1  C    Isotropic =   132.6068   Anisotropy =    66.6193

      2  C    Isotropic =   118.9606   Anisotropy =    59.4393

      3  C    Isotropic =    92.8841   Anisotropy =    33.7131

      4  C    Isotropic =   123.2021   Anisotropy =    31.8566

      5  C    Isotropic =   124.4139   Anisotropy =    40.8236

      6  C    Isotropic =   122.3881   Anisotropy =    36.0458

      7  O    Isotropic =   234.4032   Anisotropy =    53.7314

      8  O    Isotropic =   263.6465   Anisotropy =   117.9342

      9  O    Isotropic =   302.1188   Anisotropy =    63.3852

     10  O    Isotropic =   307.5546   Anisotropy =    29.6955

     11  O    Isotropic =   311.6517   Anisotropy =    23.2971

     12  H    Isotropic =    27.7141   Anisotropy =     6.4673

     13  H    Isotropic =    27.7889   Anisotropy =    11.7406

     14  H    Isotropic =    27.1113   Anisotropy =     7.6434

     15  H    Isotropic =    26.0196   Anisotropy =     7.8511

     16  H    Isotropic =    27.9637   Anisotropy =     4.4232

     17  H    Isotropic =    27.5777   Anisotropy =     6.7246

     18  H    Isotropic =    27.7716   Anisotropy =     2.4135

     19  H    Isotropic =    30.6769   Anisotropy =    16.7830

     20  H    Isotropic =    28.8962   Anisotropy =    18.1157

     21  H    Isotropic =    28.4550   Anisotropy =    17.1776

 The electronic state is 1-A.
 Alpha  occ. eigenvalues --  -19.27953 -19.27425 -19.27235 -19.27226 -19.25906
 Alpha  occ. eigenvalues --  -10.36152 -10.32130 -10.31848 -10.31766 -10.31373
 Alpha  occ. eigenvalues --  -10.31150  -1.14614  -1.09222  -1.07415  -1.05610
 Alpha  occ. eigenvalues --   -1.04326  -0.82534  -0.81363  -0.71202  -0.68602
 Alpha  occ. eigenvalues --   -0.65156  -0.61448  -0.58347  -0.55141  -0.54079
 Alpha  occ. eigenvalues --   -0.53111  -0.51560  -0.48999  -0.47522  -0.46415
 Alpha  occ. eigenvalues --   -0.44685  -0.44334  -0.42836  -0.40745  -0.39134
 Alpha  occ. eigenvalues --   -0.38555  -0.36807  -0.36027  -0.34190  -0.31977
 Alpha  occ. eigenvalues --   -0.30551  -0.29521  -0.28129
 Alpha virt. eigenvalues --    0.00390   0.01342   0.02054   0.02282   0.04322
 Alpha virt. eigenvalues --    0.04632   0.05065   0.05141   0.05830   0.08424
 Alpha virt. eigenvalues --    0.08832   0.09514   0.09648   0.10368   0.11126

 Mulliken atomic charges:
              1
     1  C   -0.162465
     2  C    0.244968
     3  C   -0.153484
     4  C   -0.010106
     5  C    0.208868
     6  C   -0.256844
     7  O   -0.322949
     8  O   -0.361469
     9  O   -0.523784
    10  O   -0.582408
    11  O   -0.547695
    12  H    0.174488
    13  H    0.183245
    14  H    0.200846
    15  H    0.186675
    16  H    0.185470
    17  H    0.174456
    18  H    0.200564
    19  H    0.377036
    20  H    0.393222
    21  H    0.391366
 Sum of Mulliken atomic charges =   0.00000

 Dipole moment (field-independent basis, Debye):
    X=             -0.3375    Y=              3.9532    Z=             -2.3395  Tot=              4.6060
 Quadrupole moment (field-independent basis, Debye-Ang):
   XX=            -64.2895   YY=            -65.4246   ZZ=            -67.8697
   XY=             -2.0322   XZ=             -0.6939   YZ=             -1.7082

 Normal termination of Gaussian 09 at Fri Apr 12 11:11:31 2019.
