 Gaussian 09, Revision C.01,
 Gaussian 09:  EM64L-G09RevC.01 23-Sep-2011

 ------------------------------------------------
 # mpw1pw91/6-31+g** nmr scrf=(pcm,solvent=water)
 ------------------------------------------------

 99/9=1/99;
 -------
 comment
 -------
 Charge =  0 Multiplicity = 1

                         Standard orientation:
 ---------------------------------------------------------------------
 Center     Atomic      Atomic             Coordinates (Angstroms)
 Number     Number       Type             X           Y           Z
 ---------------------------------------------------------------------
      1          6           0       -2.133231   -0.625041    0.106368
      2          6           0       -1.200573    0.242913    0.935390
      3          6           0        0.061489   -1.356115    0.021484
      4          6           0        0.956505    0.971688   -0.223200
      5          6           0        1.070541   -0.483257   -0.760117
      6          6           0       -0.503068    1.372339    0.093721
      7          8           0       -0.209019   -0.757562    1.290360
      8          8           0       -1.190120   -1.379221   -0.679977
      9          8           0       -1.215932    1.724106   -1.088163
     10          8           0        1.785037    1.097315    0.940694
     11          8           0        2.400360   -0.948512   -0.618244
     12          1           0       -2.792370   -0.073111   -0.563908
     13          1           0       -2.723320   -1.288814    0.748160
     14          1           0       -1.637197    0.615464    1.861898
     15          1           0        0.436083   -2.369653    0.187664
     16          1           0        1.362472    1.677826   -0.951157
     17          1           0        0.812990   -0.534852   -1.823497
     18          1           0       -0.466476    2.290126    0.685502
     19          1           0       -1.205340    0.959036   -1.687973
     20          1           0        1.372660    0.529873    1.619426
     21          1           0        2.767912   -0.430066    0.124657
 ---------------------------------------------------------------------

 SCF Done:  E(RmPW1PW91) =  -610.641876111     A.U. after   12 cycles

      1  C    Isotropic =   132.1890   Anisotropy =    58.1805

      2  C    Isotropic =   119.4428   Anisotropy =    49.4460

      3  C    Isotropic =    88.7359   Anisotropy =    25.1342

      4  C    Isotropic =   124.5259   Anisotropy =    55.9563

      5  C    Isotropic =   124.5677   Anisotropy =    45.6098

      6  C    Isotropic =   125.5329   Anisotropy =    52.6221

      7  O    Isotropic =   244.9844   Anisotropy =    58.8920

      8  O    Isotropic =   257.6397   Anisotropy =   107.5972

      9  O    Isotropic =   291.7916   Anisotropy =    25.2002

     10  O    Isotropic =   293.6877   Anisotropy =    51.2279

     11  O    Isotropic =   306.7182   Anisotropy =    44.8206

     12  H    Isotropic =    27.2684   Anisotropy =     7.1445

     13  H    Isotropic =    27.9899   Anisotropy =    11.9788

     14  H    Isotropic =    26.8108   Anisotropy =     8.1415

     15  H    Isotropic =    26.2480   Anisotropy =     6.6997

     16  H    Isotropic =    27.7400   Anisotropy =     7.2343

     17  H    Isotropic =    27.9999   Anisotropy =     5.0747

     18  H    Isotropic =    27.2489   Anisotropy =     6.1643

     19  H    Isotropic =    29.9995   Anisotropy =    13.0055

     20  H    Isotropic =    29.0834   Anisotropy =    15.2789

     21  H    Isotropic =    27.7875   Anisotropy =    16.3307

 The electronic state is 1-A.
 Alpha  occ. eigenvalues --  -19.28742 -19.27634 -19.27204 -19.27056 -19.26020
 Alpha  occ. eigenvalues --  -10.36142 -10.32361 -10.32224 -10.31984 -10.31366
 Alpha  occ. eigenvalues --  -10.30960  -1.14885  -1.08983  -1.07511  -1.05655
 Alpha  occ. eigenvalues --   -1.04447  -0.82333  -0.80702  -0.71170  -0.69044
 Alpha  occ. eigenvalues --   -0.65082  -0.61551  -0.59038  -0.55431  -0.53599
 Alpha  occ. eigenvalues --   -0.53357  -0.50261  -0.49963  -0.47210  -0.46361
 Alpha  occ. eigenvalues --   -0.44819  -0.43192  -0.42828  -0.42138  -0.38813
 Alpha  occ. eigenvalues --   -0.37641  -0.36704  -0.36062  -0.35517  -0.33181
 Alpha  occ. eigenvalues --   -0.31190  -0.29512  -0.27678
 Alpha virt. eigenvalues --    0.00610   0.00872   0.02299   0.02836   0.04030
 Alpha virt. eigenvalues --    0.04606   0.04872   0.05288   0.05346   0.07943
 Alpha virt. eigenvalues --    0.08358   0.09051   0.09828   0.10727   0.11023

 Mulliken atomic charges:
              1
     1  C   -0.236040
     2  C    0.304839
     3  C    0.058383
     4  C   -0.031424
     5  C   -0.055966
     6  C   -0.173257
     7  O   -0.411710
     8  O   -0.408163
     9  O   -0.490027
    10  O   -0.573621
    11  O   -0.527975
    12  H    0.193826
    13  H    0.182467
    14  H    0.201185
    15  H    0.191831
    16  H    0.198787
    17  H    0.192113
    18  H    0.196330
    19  H    0.378602
    20  H    0.415950
    21  H    0.393868
 Sum of Mulliken atomic charges =   0.00000

 Dipole moment (field-independent basis, Debye):
    X=             -2.9165    Y=              0.3429    Z=              1.6051  Tot=              3.3467
 Quadrupole moment (field-independent basis, Debye-Ang):
   XX=            -67.8840   YY=            -72.2410   ZZ=            -62.9363
   XY=              1.6284   XZ=             -1.2408   YZ=             -0.1147

 Normal termination of Gaussian 09 at Fri Apr 12 11:22:16 2019.
