 Gaussian 09, Revision C.01,
 Gaussian 09:  EM64L-G09RevC.01 23-Sep-2011

 ------------------------------------------------
 # mpw1pw91/6-31+g** nmr scrf=(pcm,solvent=water)
 ------------------------------------------------

 99/9=1/99;
 -------
 comment
 -------
 Charge =  0 Multiplicity = 1

                         Standard orientation:
 ---------------------------------------------------------------------
 Center     Atomic      Atomic             Coordinates (Angstroms)
 Number     Number       Type             X           Y           Z
 ---------------------------------------------------------------------
      1          6           0       -1.702960    1.097940   -0.559653
      2          6           0       -0.911490    0.926665    0.739889
      3          6           0       -1.168786   -1.104626   -0.136456
      4          6           0        1.044083   -0.024667   -0.549889
      5          6           0        0.325553   -1.380198   -0.394121
      6          6           0        0.617037    0.968289    0.540263
      7          8           0       -1.268785   -0.422887    1.110336
      8          8           0       -1.724878   -0.235580   -1.114064
      9          8           0        1.081895    2.249715    0.121712
     10          8           0        2.450457   -0.223579   -0.544846
     11          8           0        0.834370   -2.180964    0.664925
     12          1           0       -1.224620    1.785951   -1.261709
     13          1           0       -2.730295    1.425498   -0.369096
     14          1           0       -1.232142    1.597880    1.539234
     15          1           0       -1.749743   -2.028205   -0.074674
     16          1           0        0.730242    0.396015   -1.516321
     17          1           0        0.457918   -1.965516   -1.309161
     18          1           0        1.091620    0.675955    1.486944
     19          1           0        1.102413    2.836087    0.895151
     20          1           0        2.840273    0.663372   -0.625780
     21          1           0        0.509245   -1.781099    1.490699
 ---------------------------------------------------------------------

 SCF Done:  E(RmPW1PW91) =  -610.650474352     A.U. after   12 cycles

      1  C    Isotropic =   131.4807   Anisotropy =    67.5034

      2  C    Isotropic =   119.0861   Anisotropy =    60.4058

      3  C    Isotropic =    92.0619   Anisotropy =    32.6596

      4  C    Isotropic =   124.9525   Anisotropy =    35.7283

      5  C    Isotropic =   123.0605   Anisotropy =    37.6242

      6  C    Isotropic =   122.7384   Anisotropy =    34.4077

      7  O    Isotropic =   240.5331   Anisotropy =    53.9815

      8  O    Isotropic =   263.9772   Anisotropy =   113.3409

      9  O    Isotropic =   303.4828   Anisotropy =    53.5734

     10  O    Isotropic =   306.2131   Anisotropy =    33.6835

     11  O    Isotropic =   304.1130   Anisotropy =    50.7553

     12  H    Isotropic =    27.4026   Anisotropy =     6.2328

     13  H    Isotropic =    27.7579   Anisotropy =    11.5437

     14  H    Isotropic =    27.2220   Anisotropy =     7.6225

     15  H    Isotropic =    26.1254   Anisotropy =     8.0158

     16  H    Isotropic =    27.8127   Anisotropy =     5.0759

     17  H    Isotropic =    27.6906   Anisotropy =     6.3966

     18  H    Isotropic =    27.6861   Anisotropy =     3.0688

     19  H    Isotropic =    29.7216   Anisotropy =    20.8977

     20  H    Isotropic =    29.0690   Anisotropy =    17.9656

     21  H    Isotropic =    29.9616   Anisotropy =    14.4682

 The electronic state is 1-A.
 Alpha  occ. eigenvalues --  -19.28473 -19.27312 -19.27156 -19.26279 -19.26076
 Alpha  occ. eigenvalues --  -10.36240 -10.32094 -10.31660 -10.31357 -10.31224
 Alpha  occ. eigenvalues --  -10.30843  -1.14726  -1.08455  -1.07130  -1.05668
 Alpha  occ. eigenvalues --   -1.04396  -0.82557  -0.81148  -0.71055  -0.67936
 Alpha  occ. eigenvalues --   -0.65622  -0.60531  -0.57778  -0.56869  -0.54785
 Alpha  occ. eigenvalues --   -0.51772  -0.50222  -0.48593  -0.47971  -0.47052
 Alpha  occ. eigenvalues --   -0.44836  -0.43718  -0.41538  -0.40259  -0.39573
 Alpha  occ. eigenvalues --   -0.38431  -0.37695  -0.35538  -0.33602  -0.31910
 Alpha  occ. eigenvalues --   -0.30597  -0.29423  -0.28053
 Alpha virt. eigenvalues --    0.00545   0.01381   0.01881   0.02316   0.03991
 Alpha virt. eigenvalues --    0.04613   0.04949   0.05544   0.05840   0.08210
 Alpha virt. eigenvalues --    0.08955   0.09531   0.09710   0.10705   0.11308

 Mulliken atomic charges:
              1
     1  C   -0.178793
     2  C    0.261070
     3  C   -0.143796
     4  C   -0.089221
     5  C    0.218840
     6  C   -0.210260
     7  O   -0.367903
     8  O   -0.363768
     9  O   -0.569117
    10  O   -0.537006
    11  O   -0.504051
    12  H    0.189506
    13  H    0.180445
    14  H    0.199194
    15  H    0.190760
    16  H    0.187805
    17  H    0.185528
    18  H    0.192019
    19  H    0.395729
    20  H    0.385496
    21  H    0.377522
 Sum of Mulliken atomic charges =   0.00000

 Dipole moment (field-independent basis, Debye):
    X=             -1.6716    Y=              5.1467    Z=              2.1250  Tot=              5.8136
 Quadrupole moment (field-independent basis, Debye-Ang):
   XX=            -70.6550   YY=            -62.5446   ZZ=            -62.5182
   XY=              5.3906   XZ=              0.4334   YZ=              6.0315

 Normal termination of Gaussian 09 at Fri Apr 12 11:12:11 2019.
