 Gaussian 09, Revision C.01,
 Gaussian 09:  EM64L-G09RevC.01 23-Sep-2011

 -----------------------------------------------------------
 # B3LYP/6-31+G** test scrf=(pcm,solvent=water,smd,dovacuum)
 -----------------------------------------------------------

 99/5=1,9=1/99;
 -------
 comment
 -------
 Charge =  0 Multiplicity = 1

                         Standard orientation:
 ---------------------------------------------------------------------
 Center     Atomic      Atomic             Coordinates (Angstroms)
 Number     Number       Type             X           Y           Z
 ---------------------------------------------------------------------
      1          6           0       -2.135950   -0.553939   -0.074948
      2          6           0       -1.240052    0.262561    0.864079
      3          6           0       -0.006195   -1.411680    0.100942
      4          6           0        0.980437    0.900580   -0.253518
      5          6           0        1.015043   -0.579762   -0.716501
      6          6           0       -0.429578    1.390960    0.163521
      7          8           0       -0.331963   -0.759620    1.316406
      8          8           0       -1.233218   -1.529659   -0.622184
      9          8           0       -1.181454    1.855121   -0.954652
     10          8           0        1.876030    0.994418    0.868485
     11          8           0        2.330737   -1.093085   -0.597512
     12          1           0       -2.578799    0.033112   -0.879592
     13          1           0       -2.924298   -1.059580    0.495159
     14          1           0       -1.776416    0.642056    1.734403
     15          1           0        0.393679   -2.403943    0.327526
     16          1           0        1.342892    1.539125   -1.067382
     17          1           0        0.726738   -0.646540   -1.769995
     18          1           0       -0.273720    2.205493    0.882456
     19          1           0       -0.783267    2.688699   -1.252723
     20          1           0        2.381856    1.816813    0.783064
     21          1           0        2.708039   -0.604958    0.161293
 ---------------------------------------------------------------------

 SCF Done:  E(RB3LYP) =  -610.799832649     A.U. after   12 cycles

 The electronic state is 1-A.
 Alpha  occ. eigenvalues --  -19.18190 -19.17405 -19.17224 -19.17100 -19.16452
 Alpha  occ. eigenvalues --  -10.28900 -10.24954 -10.24877 -10.24829 -10.24217
 Alpha  occ. eigenvalues --  -10.23485  -1.10898  -1.05355  -1.03818  -1.02090
 Alpha  occ. eigenvalues --   -1.00963  -0.78752  -0.77526  -0.67575  -0.66059
 Alpha  occ. eigenvalues --   -0.61908  -0.57720  -0.55331  -0.54586  -0.52232
 Alpha  occ. eigenvalues --   -0.50225  -0.47923  -0.46959  -0.45548  -0.44023
 Alpha  occ. eigenvalues --   -0.42295  -0.41287  -0.40361  -0.38417  -0.36310
 Alpha  occ. eigenvalues --   -0.35757  -0.34917  -0.34688  -0.32340  -0.31249
 Alpha  occ. eigenvalues --   -0.28638  -0.27536  -0.25871
 Alpha virt. eigenvalues --    0.00469   0.01060   0.02284   0.03009   0.04277
 Alpha virt. eigenvalues --    0.04657   0.04887   0.05177   0.06213   0.07953
 Alpha virt. eigenvalues --    0.08880   0.09106   0.10156   0.11041   0.11656

 Mulliken atomic charges:
              1
     1  C   -0.124116
     2  C    0.281004
     3  C    0.109823
     4  C    0.039918
     5  C    0.059802
     6  C   -0.065828
     7  O   -0.409007
     8  O   -0.460900
     9  O   -0.617522
    10  O   -0.671301
    11  O   -0.610855
    12  H    0.178074
    13  H    0.160982
    14  H    0.180273
    15  H    0.168154
    16  H    0.171945
    17  H    0.178947
    18  H    0.166420
    19  H    0.423020
    20  H    0.432212
    21  H    0.408956
 Sum of Mulliken atomic charges =   0.00000

 Dipole moment (field-independent basis, Debye):
    X=              0.1595    Y=              7.2651    Z=              0.3003  Tot=              7.2730
 Quadrupole moment (field-independent basis, Debye-Ang):
   XX=            -64.2420   YY=            -56.7517   ZZ=            -69.8703
   XY=              7.5338   XZ=             -2.1791   YZ=             -3.1001

 Normal termination of Gaussian 09 at Mon Apr 15 18:17:56 2019.
