 Gaussian 09, Revision C.01,
 Gaussian 09:  EM64L-G09RevC.01 23-Sep-2011

 -----------------------------------------------------------
 # B3LYP/6-31+G** test scrf=(pcm,solvent=water,smd,dovacuum)
 -----------------------------------------------------------

 99/5=1,9=1/99;
 -------
 comment
 -------
 Charge =  0 Multiplicity = 1

                         Standard orientation:
 ---------------------------------------------------------------------
 Center     Atomic      Atomic             Coordinates (Angstroms)
 Number     Number       Type             X           Y           Z
 ---------------------------------------------------------------------
      1          6           0       -2.079764   -0.688222   -0.060198
      2          6           0       -1.243261    0.205239    0.859134
      3          6           0        0.111613   -1.384659    0.085975
      4          6           0        0.931427    0.981800   -0.212472
      5          6           0        1.045661   -0.465829   -0.748448
      6          6           0       -0.516653    1.386691    0.129546
      7          8           0       -0.242921   -0.741592    1.312877
      8          8           0       -1.115334   -1.611528   -0.595652
      9          8           0       -1.148348    1.780119   -1.084976
     10          8           0        1.772746    1.107155    0.943395
     11          8           0        2.397429   -0.892145   -0.690329
     12          1           0       -2.556290   -0.142331   -0.875479
     13          1           0       -2.834243   -1.238575    0.512581
     14          1           0       -1.792481    0.547252    1.737000
     15          1           0        0.596588   -2.336330    0.317759
     16          1           0        1.327414    1.688229   -0.945454
     17          1           0        0.724972   -0.519263   -1.793174
     18          1           0       -0.451178    2.239781    0.815632
     19          1           0       -1.957456    2.268141   -0.862648
     20          1           0        1.360723    0.546304    1.627771
     21          1           0        2.779237   -0.399403    0.062268
 ---------------------------------------------------------------------

 SCF Done:  E(RB3LYP) =  -610.800896926     A.U. after   12 cycles

 The electronic state is 1-A.
 Alpha  occ. eigenvalues --  -19.18741 -19.17488 -19.17320 -19.17133 -19.16646
 Alpha  occ. eigenvalues --  -10.29224 -10.25076 -10.25048 -10.24896 -10.24324
 Alpha  occ. eigenvalues --  -10.23698  -1.11089  -1.05478  -1.03850  -1.02341
 Alpha  occ. eigenvalues --   -1.01063  -0.78784  -0.77691  -0.68042  -0.66069
 Alpha  occ. eigenvalues --   -0.61935  -0.58923  -0.55572  -0.54070  -0.51318
 Alpha  occ. eigenvalues --   -0.49143  -0.48585  -0.47309  -0.46561  -0.44117
 Alpha  occ. eigenvalues --   -0.42252  -0.41712  -0.40334  -0.39032  -0.37056
 Alpha  occ. eigenvalues --   -0.36143  -0.34917  -0.34097  -0.32693  -0.30589
 Alpha  occ. eigenvalues --   -0.29849  -0.27745  -0.25879
 Alpha virt. eigenvalues --    0.00612   0.00912   0.02497   0.03023   0.04149
 Alpha virt. eigenvalues --    0.04558   0.05196   0.05526   0.05626   0.08388
 Alpha virt. eigenvalues --    0.08844   0.09303   0.10110   0.10654   0.11229

 Mulliken atomic charges:
              1
     1  C   -0.145387
     2  C    0.323139
     3  C    0.112732
     4  C    0.030546
     5  C    0.030502
     6  C   -0.094911
     7  O   -0.452133
     8  O   -0.449530
     9  O   -0.619378
    10  O   -0.626269
    11  O   -0.598435
    12  H    0.175492
    13  H    0.163403
    14  H    0.182237
    15  H    0.173996
    16  H    0.173295
    17  H    0.182469
    18  H    0.175024
    19  H    0.426369
    20  H    0.426538
    21  H    0.410301
 Sum of Mulliken atomic charges =   0.00000

 Dipole moment (field-independent basis, Debye):
    X=             -4.9846    Y=              3.3252    Z=              3.0435  Tot=              6.7206
 Quadrupole moment (field-independent basis, Debye-Ang):
   XX=            -63.0289   YY=            -67.4611   ZZ=            -68.7228
   XY=             -6.9018   XZ=             -0.2937   YZ=             -1.3031

 Normal termination of Gaussian 09 at Mon Apr 15 18:23:31 2019.
