 Gaussian 09, Revision C.01,
 Gaussian 09:  EM64L-G09RevC.01 23-Sep-2011

 ------------------------------------------------
 # mpw1pw91/6-31+g** nmr scrf=(pcm,solvent=water)
 ------------------------------------------------

 99/9=1/99;
 -------
 comment
 -------
 Charge =  0 Multiplicity = 1

                         Standard orientation:
 ---------------------------------------------------------------------
 Center     Atomic      Atomic             Coordinates (Angstroms)
 Number     Number       Type             X           Y           Z
 ---------------------------------------------------------------------
      1          6           0       -1.748900    1.007890   -0.593077
      2          6           0       -0.967637    0.910502    0.723226
      3          6           0       -1.120684   -1.149107   -0.078443
      4          6           0        1.032887    0.022471   -0.536341
      5          6           0        0.382605   -1.359165   -0.374951
      6          6           0        0.561345    1.001397    0.546137
      7          8           0       -1.278011   -0.434099    1.131198
      8          8           0       -1.720549   -0.345541   -1.096494
      9          8           0        0.989301    2.295217    0.120197
     10          8           0        2.448232   -0.097654   -0.546387
     11          8           0        1.009033   -2.051864    0.697400
     12          1           0       -1.288041    1.686012   -1.316632
     13          1           0       -2.788557    1.307827   -0.423916
     14          1           0       -1.323603    1.597604    1.494061
     15          1           0       -1.658004   -2.098580    0.006742
     16          1           0        0.690365    0.418953   -1.502855
     17          1           0        0.492100   -1.917590   -1.315676
     18          1           0        1.030764    0.728598    1.499618
     19          1           0        0.993899    2.884476    0.891358
     20          1           0        2.781892    0.813089   -0.615817
     21          1           0        0.647440   -2.952784    0.716499
 ---------------------------------------------------------------------

 SCF Done:  E(RmPW1PW91) =  -610.647995191     A.U. after   12 cycles

      1  C    Isotropic =   131.8505   Anisotropy =    66.3309

      2  C    Isotropic =   118.6748   Anisotropy =    60.5468

      3  C    Isotropic =    91.5051   Anisotropy =    30.5065

      4  C    Isotropic =   125.4511   Anisotropy =    38.5365

      5  C    Isotropic =   123.1393   Anisotropy =    39.3961

      6  C    Isotropic =   122.8419   Anisotropy =    35.2367

      7  O    Isotropic =   238.3338   Anisotropy =    50.8629

      8  O    Isotropic =   261.1892   Anisotropy =   113.9492

      9  O    Isotropic =   303.9091   Anisotropy =    55.6471

     10  O    Isotropic =   307.7399   Anisotropy =    36.0119

     11  O    Isotropic =   302.3943   Anisotropy =    54.6203

     12  H    Isotropic =    27.4684   Anisotropy =     6.1188

     13  H    Isotropic =    27.8229   Anisotropy =    11.5998

     14  H    Isotropic =    27.2007   Anisotropy =     7.5410

     15  H    Isotropic =    26.2531   Anisotropy =     7.6736

     16  H    Isotropic =    27.7257   Anisotropy =     5.3000

     17  H    Isotropic =    27.4652   Anisotropy =     5.9271

     18  H    Isotropic =    27.5020   Anisotropy =     3.1232

     19  H    Isotropic =    29.7395   Anisotropy =    20.9283

     20  H    Isotropic =    29.0537   Anisotropy =    17.9296

     21  H    Isotropic =    30.2379   Anisotropy =    20.4892

 The electronic state is 1-A.
 Alpha  occ. eigenvalues --  -19.27735 -19.27004 -19.26992 -19.26257 -19.25962
 Alpha  occ. eigenvalues --  -10.35951 -10.31746 -10.31397 -10.31327 -10.31242
 Alpha  occ. eigenvalues --  -10.30619  -1.14332  -1.08354  -1.06995  -1.05464
 Alpha  occ. eigenvalues --   -1.04057  -0.82257  -0.81249  -0.70625  -0.67673
 Alpha  occ. eigenvalues --   -0.65296  -0.60288  -0.57171  -0.56508  -0.54694
 Alpha  occ. eigenvalues --   -0.51578  -0.51221  -0.48713  -0.47559  -0.46080
 Alpha  occ. eigenvalues --   -0.44757  -0.43381  -0.42236  -0.40205  -0.38572
 Alpha  occ. eigenvalues --   -0.37889  -0.36831  -0.35392  -0.33601  -0.31879
 Alpha  occ. eigenvalues --   -0.30503  -0.29124  -0.27571
 Alpha virt. eigenvalues --    0.00488   0.01293   0.01693   0.02414   0.04155
 Alpha virt. eigenvalues --    0.04370   0.04923   0.05684   0.05861   0.08311
 Alpha virt. eigenvalues --    0.08698   0.09437   0.09900   0.10541   0.11331

 Mulliken atomic charges:
              1
     1  C   -0.167400
     2  C    0.248653
     3  C   -0.191325
     4  C   -0.112228
     5  C    0.270107
     6  C   -0.155126
     7  O   -0.313983
     8  O   -0.365001
     9  O   -0.570948
    10  O   -0.551519
    11  O   -0.562264
    12  H    0.186091
    13  H    0.177670
    14  H    0.194688
    15  H    0.183973
    16  H    0.186806
    17  H    0.179138
    18  H    0.191412
    19  H    0.395860
    20  H    0.384465
    21  H    0.390929
 Sum of Mulliken atomic charges =   0.00000

 Dipole moment (field-independent basis, Debye):
    X=             -1.8659    Y=              2.3567    Z=              0.8132  Tot=              3.1140
 Quadrupole moment (field-independent basis, Debye-Ang):
   XX=            -72.2314   YY=            -49.4050   ZZ=            -66.8347
   XY=              3.7002   XZ=             -0.5020   YZ=              6.0742

 Normal termination of Gaussian 09 at Fri Apr 12 11:14:46 2019.
