 Gaussian 09, Revision C.01,
 Gaussian 09:  EM64L-G09RevC.01 23-Sep-2011

 -----------------------------------------------------------
 # B3LYP/6-31+G** test scrf=(pcm,solvent=water,smd,dovacuum)
 -----------------------------------------------------------

 99/5=1,9=1/99;
 -------
 comment
 -------
 Charge =  0 Multiplicity = 1

                         Standard orientation:
 ---------------------------------------------------------------------
 Center     Atomic      Atomic             Coordinates (Angstroms)
 Number     Number       Type             X           Y           Z
 ---------------------------------------------------------------------
      1          6           0       -1.846884    0.833758   -0.600220
      2          6           0       -1.039838    0.851905    0.704267
      3          6           0       -1.036229   -1.244339   -0.017712
      4          6           0        1.006286    0.099247   -0.563695
      5          6           0        0.457580   -1.326732   -0.371815
      6          6           0        0.474702    1.060897    0.503542
      7          8           0       -1.225685   -0.497339    1.167101
      8          8           0       -1.723167   -0.532629   -1.049768
      9          8           0        0.809494    2.374318    0.059868
     10          8           0        2.429308    0.007102   -0.523358
     11          8           0        1.132848   -1.994842    0.682843
     12          1           0       -1.451177    1.515353   -1.358734
     13          1           0       -2.903511    1.060849   -0.423302
     14          1           0       -1.440244    1.535285    1.456256
     15          1           0       -1.482858   -2.232488    0.118191
     16          1           0        0.685471    0.470262   -1.546108
     17          1           0        0.566857   -1.881902   -1.316120
     18          1           0        0.967610    0.832522    1.457418
     19          1           0        0.757235    2.976046    0.819854
     20          1           0        2.766875    0.915854   -0.449480
     21          1           0        2.057660   -1.693081    0.622328
 ---------------------------------------------------------------------

 SCF Done:  E(RB3LYP) =  -610.809650417     A.U. after   12 cycles

 The electronic state is 1-A.
 Alpha  occ. eigenvalues --  -19.18478 -19.17667 -19.17402 -19.17386 -19.16771
 Alpha  occ. eigenvalues --  -10.29543 -10.25022 -10.24705 -10.24675 -10.24632
 Alpha  occ. eigenvalues --  -10.23943  -1.11277  -1.05676  -1.03891  -1.02364
 Alpha  occ. eigenvalues --   -1.01260  -0.79412  -0.78388  -0.68039  -0.65664
 Alpha  occ. eigenvalues --   -0.62835  -0.58431  -0.54904  -0.54535  -0.51077
 Alpha  occ. eigenvalues --   -0.50484  -0.49526  -0.46903  -0.45643  -0.44296
 Alpha  occ. eigenvalues --   -0.43341  -0.42271  -0.40043  -0.38707  -0.37883
 Alpha  occ. eigenvalues --   -0.36486  -0.35125  -0.34716  -0.31656  -0.30073
 Alpha  occ. eigenvalues --   -0.29083  -0.27842  -0.26875
 Alpha virt. eigenvalues --    0.00598   0.01455   0.01903   0.02781   0.04244
 Alpha virt. eigenvalues --    0.04836   0.05136   0.05687   0.06091   0.08477
 Alpha virt. eigenvalues --    0.08972   0.09712   0.09903   0.10645   0.11610

 Mulliken atomic charges:
              1
     1  C   -0.128994
     2  C    0.280739
     3  C   -0.017678
     4  C    0.009112
     5  C    0.226887
     6  C   -0.092594
     7  O   -0.402883
     8  O   -0.436001
     9  O   -0.627981
    10  O   -0.650553
    11  O   -0.617543
    12  H    0.177904
    13  H    0.166238
    14  H    0.181437
    15  H    0.171394
    16  H    0.179587
    17  H    0.162706
    18  H    0.176738
    19  H    0.418308
    20  H    0.412376
    21  H    0.410801
 Sum of Mulliken atomic charges =   0.00000

 Dipole moment (field-independent basis, Debye):
    X=              0.4293    Y=              5.3565    Z=              0.7838  Tot=              5.4305
 Quadrupole moment (field-independent basis, Debye-Ang):
   XX=            -64.7774   YY=            -61.5046   ZZ=            -68.1570
   XY=              0.2902   XZ=              1.1371   YZ=              8.9258

 Normal termination of Gaussian 09 at Mon Apr 15 18:13:59 2019.
