 Gaussian 09, Revision C.01,
 Gaussian 09:  EM64L-G09RevC.01 23-Sep-2011

 -----------------------------------------------------------
 # B3LYP/6-31+G** test scrf=(pcm,solvent=water,smd,dovacuum)
 -----------------------------------------------------------

 99/5=1,9=1/99;
 -------
 comment
 -------
 Charge =  0 Multiplicity = 1

                         Standard orientation:
 ---------------------------------------------------------------------
 Center     Atomic      Atomic             Coordinates (Angstroms)
 Number     Number       Type             X           Y           Z
 ---------------------------------------------------------------------
      1          6           0       -1.881608    0.792455   -0.547658
      2          6           0       -1.052630    0.781453    0.741074
      3          6           0       -0.975955   -1.279997   -0.102681
      4          6           0        1.020177    0.168513   -0.576672
      5          6           0        0.527597   -1.284948   -0.419695
      6          6           0        0.437911    1.080857    0.521900
      7          8           0       -1.160640   -0.603792    1.135018
      8          8           0       -1.691066   -0.536686   -1.080127
      9          8           0        0.586226    2.453850    0.188128
     10          8           0        2.441260    0.227961   -0.579888
     11          8           0        1.251656   -1.943292    0.623051
     12          1           0       -1.534812    1.536222   -1.269878
     13          1           0       -2.945809    0.948504   -0.343185
     14          1           0       -1.470365    1.401679    1.535720
     15          1           0       -1.389140   -2.287869   -0.013581
     16          1           0        0.693937    0.554233   -1.547637
     17          1           0        0.729388   -1.847591   -1.335679
     18          1           0        0.955521    0.860470    1.468865
     19          1           0        1.522718    2.577969   -0.042675
     20          1           0        2.721493   -0.415760    0.098225
     21          1           0        0.844632   -1.662185    1.462769
 ---------------------------------------------------------------------

 SCF Done:  E(RB3LYP) =  -610.811282636     A.U. after   12 cycles

 The electronic state is 1-A.
 Alpha  occ. eigenvalues --  -19.18855 -19.17921 -19.17593 -19.17085 -19.16913
 Alpha  occ. eigenvalues --  -10.29771 -10.25266 -10.24790 -10.24478 -10.24340
 Alpha  occ. eigenvalues --  -10.24076  -1.11477  -1.05485  -1.04016  -1.02461
 Alpha  occ. eigenvalues --   -1.01431  -0.79565  -0.77991  -0.68123  -0.65811
 Alpha  occ. eigenvalues --   -0.62806  -0.58985  -0.55798  -0.52959  -0.52732
 Alpha  occ. eigenvalues --   -0.50009  -0.48179  -0.47580  -0.45428  -0.45060
 Alpha  occ. eigenvalues --   -0.42709  -0.42168  -0.39719  -0.39140  -0.38087
 Alpha  occ. eigenvalues --   -0.35950  -0.35552  -0.35045  -0.32001  -0.31103
 Alpha  occ. eigenvalues --   -0.29280  -0.27417  -0.26780
 Alpha virt. eigenvalues --    0.00787   0.01514   0.02207   0.02397   0.04277
 Alpha virt. eigenvalues --    0.04834   0.05174   0.05550   0.06087   0.08608
 Alpha virt. eigenvalues --    0.09128   0.09407   0.10249   0.10719   0.11468

 Mulliken atomic charges:
              1
     1  C   -0.131491
     2  C    0.251963
     3  C   -0.002792
     4  C   -0.079171
     5  C    0.161948
     6  C    0.017727
     7  O   -0.425288
     8  O   -0.432078
     9  O   -0.610992
    10  O   -0.615011
    11  O   -0.600638
    12  H    0.180678
    13  H    0.168603
    14  H    0.184184
    15  H    0.176173
    16  H    0.187643
    17  H    0.178855
    18  H    0.167231
    19  H    0.408397
    20  H    0.406056
    21  H    0.408003
 Sum of Mulliken atomic charges =   0.00000

 Dipole moment (field-independent basis, Debye):
    X=             -0.6607    Y=              0.4858    Z=              1.6725  Tot=              1.8627
 Quadrupole moment (field-independent basis, Debye-Ang):
   XX=            -68.6012   YY=            -69.5996   ZZ=            -65.3856
   XY=             -0.0473   XZ=              2.4619   YZ=              0.1301

 Normal termination of Gaussian 09 at Mon Apr 15 18:29:16 2019.
