 Gaussian 09, Revision C.01,
 Gaussian 09:  EM64L-G09RevC.01 23-Sep-2011

 ------------------------------------------------
 # mpw1pw91/6-31+g** nmr scrf=(pcm,solvent=water)
 ------------------------------------------------

 99/9=1/99;
 -------
 comment
 -------
 Charge =  0 Multiplicity = 1

                         Standard orientation:
 ---------------------------------------------------------------------
 Center     Atomic      Atomic             Coordinates (Angstroms)
 Number     Number       Type             X           Y           Z
 ---------------------------------------------------------------------
      1          6           0       -2.092233   -0.657307   -0.063666
      2          6           0       -1.243058    0.225893    0.855340
      3          6           0        0.088592   -1.384617    0.083869
      4          6           0        0.947651    0.967054   -0.207874
      5          6           0        1.037716   -0.479708   -0.749135
      6          6           0       -0.498867    1.391829    0.137246
      7          8           0       -0.258682   -0.734830    1.310078
      8          8           0       -1.140108   -1.593518   -0.600066
      9          8           0       -1.238089    1.758080   -1.022779
     10          8           0        1.793039    1.076996    0.947542
     11          8           0        2.382165   -0.929322   -0.694360
     12          1           0       -2.568679   -0.107063   -0.874783
     13          1           0       -2.848092   -1.198225    0.516592
     14          1           0       -1.791030    0.576304    1.729923
     15          1           0        0.559176   -2.342945    0.317908
     16          1           0        1.364533    1.665568   -0.939249
     17          1           0        0.713772   -0.523183   -1.793119
     18          1           0       -0.422578    2.241560    0.827660
     19          1           0       -0.894798    2.610538   -1.335600
     20          1           0        1.369354    0.525786    1.632550
     21          1           0        2.772926   -0.446447    0.060112
 ---------------------------------------------------------------------

 SCF Done:  E(RmPW1PW91) =  -610.644261185     A.U. after   12 cycles

      1  C    Isotropic =   133.9582   Anisotropy =    67.9443

      2  C    Isotropic =   120.7889   Anisotropy =    55.5185

      3  C    Isotropic =    87.5938   Anisotropy =    22.5943

      4  C    Isotropic =   123.6689   Anisotropy =    54.1657

      5  C    Isotropic =   122.2009   Anisotropy =    41.9338

      6  C    Isotropic =   126.1282   Anisotropy =    48.7534

      7  O    Isotropic =   238.7069   Anisotropy =    63.5714

      8  O    Isotropic =   260.6249   Anisotropy =   121.3881

      9  O    Isotropic =   297.3852   Anisotropy =    83.7324

     10  O    Isotropic =   294.3254   Anisotropy =    48.4894

     11  O    Isotropic =   301.8765   Anisotropy =    45.4766

     12  H    Isotropic =    27.0936   Anisotropy =     6.4732

     13  H    Isotropic =    27.9783   Anisotropy =    11.6194

     14  H    Isotropic =    26.7507   Anisotropy =     8.3854

     15  H    Isotropic =    26.2183   Anisotropy =     6.1551

     16  H    Isotropic =    28.0035   Anisotropy =     7.0301

     17  H    Isotropic =    27.9587   Anisotropy =     4.7229

     18  H    Isotropic =    27.0815   Anisotropy =     5.7508

     19  H    Isotropic =    29.9264   Anisotropy =    20.5455

     20  H    Isotropic =    29.1910   Anisotropy =    15.3030

     21  H    Isotropic =    27.8525   Anisotropy =    15.8236

 The electronic state is 1-A.
 Alpha  occ. eigenvalues --  -19.28530 -19.26993 -19.26979 -19.26845 -19.25823
 Alpha  occ. eigenvalues --  -10.35819 -10.32254 -10.32099 -10.31712 -10.30948
 Alpha  occ. eigenvalues --  -10.30376  -1.14482  -1.08748  -1.07442  -1.05433
 Alpha  occ. eigenvalues --   -1.04143  -0.82049  -0.80505  -0.70627  -0.69103
 Alpha  occ. eigenvalues --   -0.64458  -0.61312  -0.57951  -0.55845  -0.54056
 Alpha  occ. eigenvalues --   -0.52476  -0.50539  -0.48921  -0.47995  -0.46267
 Alpha  occ. eigenvalues --   -0.44297  -0.43363  -0.42003  -0.40375  -0.39466
 Alpha  occ. eigenvalues --   -0.37803  -0.37092  -0.35875  -0.33849  -0.33078
 Alpha  occ. eigenvalues --   -0.30495  -0.29592  -0.27361
 Alpha virt. eigenvalues --    0.00480   0.01041   0.02129   0.02808   0.04117
 Alpha virt. eigenvalues --    0.04496   0.04785   0.05370   0.05618   0.08051
 Alpha virt. eigenvalues --    0.08777   0.09023   0.09881   0.10590   0.10921

 Mulliken atomic charges:
              1
     1  C   -0.197180
     2  C    0.269665
     3  C    0.018789
     4  C   -0.014795
     5  C   -0.013638
     6  C   -0.166300
     7  O   -0.391543
     8  O   -0.383414
     9  O   -0.554117
    10  O   -0.576249
    11  O   -0.530197
    12  H    0.196103
    13  H    0.174945
    14  H    0.200758
    15  H    0.190622
    16  H    0.186396
    17  H    0.193918
    18  H    0.190656
    19  H    0.400987
    20  H    0.412784
    21  H    0.391806
 Sum of Mulliken atomic charges =   0.00000

 Dipole moment (field-independent basis, Debye):
    X=             -2.2962    Y=              3.8153    Z=              1.6074  Tot=              4.7342
 Quadrupole moment (field-independent basis, Debye-Ang):
   XX=            -69.5294   YY=            -62.4724   ZZ=            -65.0628
   XY=             -1.2913   XZ=             -1.3160   YZ=             -5.1081

 Normal termination of Gaussian 09 at Fri Apr 12 11:17:02 2019.
