 Gaussian 09, Revision C.01,
 Gaussian 09:  EM64L-G09RevC.01 23-Sep-2011

 -----------------------------------------------------------
 # B3LYP/6-31+G** test scrf=(pcm,solvent=water,smd,dovacuum)
 -----------------------------------------------------------

 99/5=1,9=1/99;
 -------
 comment
 -------
 Charge =  0 Multiplicity = 1

                         Standard orientation:
 ---------------------------------------------------------------------
 Center     Atomic      Atomic             Coordinates (Angstroms)
 Number     Number       Type             X           Y           Z
 ---------------------------------------------------------------------
      1          6           0       -1.938557    0.622517   -0.585723
      2          6           0       -1.136719    0.722888    0.718508
      3          6           0       -0.874770   -1.348802   -0.035298
      4          6           0        0.990761    0.249290   -0.560387
      5          6           0        0.620357   -1.237304   -0.388753
      6          6           0        0.332243    1.124614    0.521891
      7          8           0       -1.147300   -0.645896    1.160455
      8          8           0       -1.644828   -0.710563   -1.056760
      9          8           0        0.393634    2.501616    0.172478
     10          8           0        2.400837    0.430538   -0.569916
     11          8           0        1.434785   -1.751220    0.669518
     12          1           0       -1.633242    1.359010   -1.334274
     13          1           0       -3.014965    0.711350   -0.404729
     14          1           0       -1.617180    1.340509    1.479623
     15          1           0       -1.200459   -2.385373    0.086659
     16          1           0        0.630617    0.591264   -1.535365
     17          1           0        0.819594   -1.773394   -1.323996
     18          1           0        0.846733    0.944139    1.477930
     19          1           0        1.322931    2.681634   -0.050627
     20          1           0        2.732815   -0.190524    0.106363
     21          1           0        1.656252   -2.673623    0.470789
 ---------------------------------------------------------------------

 SCF Done:  E(RB3LYP) =  -610.810388139     A.U. after   12 cycles

 The electronic state is 1-A.
 Alpha  occ. eigenvalues --  -19.18460 -19.17652 -19.17545 -19.17027 -19.16843
 Alpha  occ. eigenvalues --  -10.29431 -10.25085 -10.24862 -10.24379 -10.24343
 Alpha  occ. eigenvalues --  -10.23937  -1.11237  -1.05489  -1.03905  -1.02259
 Alpha  occ. eigenvalues --   -1.01248  -0.79380  -0.78207  -0.67810  -0.65582
 Alpha  occ. eigenvalues --   -0.62365  -0.59349  -0.55076  -0.53474  -0.52247
 Alpha  occ. eigenvalues --   -0.50086  -0.49158  -0.46799  -0.45534  -0.44594
 Alpha  occ. eigenvalues --   -0.42503  -0.42256  -0.40878  -0.38117  -0.37147
 Alpha  occ. eigenvalues --   -0.35649  -0.35524  -0.34764  -0.32092  -0.31138
 Alpha  occ. eigenvalues --   -0.29162  -0.27249  -0.26638
 Alpha virt. eigenvalues --    0.00523   0.01519   0.01925   0.02630   0.04324
 Alpha virt. eigenvalues --    0.04724   0.05306   0.05562   0.06052   0.08507
 Alpha virt. eigenvalues --    0.08879   0.09471   0.10327   0.10729   0.11559

 Mulliken atomic charges:
              1
     1  C   -0.111667
     2  C    0.224615
     3  C    0.021171
     4  C   -0.105570
     5  C    0.186456
     6  C    0.047597
     7  O   -0.404125
     8  O   -0.436093
     9  O   -0.608750
    10  O   -0.627646
    11  O   -0.655271
    12  H    0.178324
    13  H    0.166287
    14  H    0.181204
    15  H    0.170237
    16  H    0.188924
    17  H    0.179680
    18  H    0.163305
    19  H    0.407198
    20  H    0.406304
    21  H    0.427821
 Sum of Mulliken atomic charges =   0.00000

 Dipole moment (field-independent basis, Debye):
    X=              0.8725    Y=             -2.4036    Z=             -0.4940  Tot=              2.6043
 Quadrupole moment (field-independent basis, Debye-Ang):
   XX=            -65.3994   YY=            -58.1282   ZZ=            -70.4597
   XY=             -6.9506   XZ=              1.1289   YZ=              2.1515

 Normal termination of Gaussian 09 at Mon Apr 15 18:38:29 2019.
