 Gaussian 09, Revision C.01,
 Gaussian 09:  EM64L-G09RevC.01 23-Sep-2011

 -----------------------------------------------------------
 # B3LYP/6-31+G** test scrf=(pcm,solvent=water,smd,dovacuum)
 -----------------------------------------------------------

 99/5=1,9=1/99;
 -------
 comment
 -------
 Charge =  0 Multiplicity = 1

                         Standard orientation:
 ---------------------------------------------------------------------
 Center     Atomic      Atomic             Coordinates (Angstroms)
 Number     Number       Type             X           Y           Z
 ---------------------------------------------------------------------
      1          6           0       -2.092233   -0.657307   -0.063666
      2          6           0       -1.243058    0.225893    0.855340
      3          6           0        0.088592   -1.384617    0.083869
      4          6           0        0.947651    0.967054   -0.207874
      5          6           0        1.037716   -0.479708   -0.749135
      6          6           0       -0.498867    1.391829    0.137246
      7          8           0       -0.258682   -0.734830    1.310078
      8          8           0       -1.140108   -1.593518   -0.600066
      9          8           0       -1.238089    1.758080   -1.022779
     10          8           0        1.793039    1.076996    0.947542
     11          8           0        2.382165   -0.929322   -0.694360
     12          1           0       -2.568679   -0.107063   -0.874783
     13          1           0       -2.848092   -1.198225    0.516592
     14          1           0       -1.791030    0.576304    1.729923
     15          1           0        0.559176   -2.342945    0.317908
     16          1           0        1.364533    1.665568   -0.939249
     17          1           0        0.713772   -0.523183   -1.793119
     18          1           0       -0.422578    2.241560    0.827660
     19          1           0       -0.894798    2.610538   -1.335600
     20          1           0        1.369354    0.525786    1.632550
     21          1           0        2.772926   -0.446447    0.060112
 ---------------------------------------------------------------------

 SCF Done:  E(RB3LYP) =  -610.801417467     A.U. after   12 cycles

 The electronic state is 1-A.
 Alpha  occ. eigenvalues --  -19.18743 -19.17480 -19.17312 -19.17240 -19.16646
 Alpha  occ. eigenvalues --  -10.29224 -10.25250 -10.25086 -10.24753 -10.24298
 Alpha  occ. eigenvalues --  -10.23709  -1.11115  -1.05439  -1.03976  -1.02331
 Alpha  occ. eigenvalues --   -1.01078  -0.78988  -0.77486  -0.67878  -0.66362
 Alpha  occ. eigenvalues --   -0.61941  -0.58886  -0.55630  -0.53476  -0.51837
 Alpha  occ. eigenvalues --   -0.50296  -0.48470  -0.46835  -0.45941  -0.44310
 Alpha  occ. eigenvalues --   -0.42438  -0.41446  -0.40145  -0.38440  -0.37794
 Alpha  occ. eigenvalues --   -0.36067  -0.35500  -0.34281  -0.32140  -0.31447
 Alpha  occ. eigenvalues --   -0.28914  -0.27884  -0.26009
 Alpha virt. eigenvalues --    0.00632   0.01106   0.02318   0.03016   0.04231
 Alpha virt. eigenvalues --    0.04634   0.05027   0.05517   0.05801   0.08179
 Alpha virt. eigenvalues --    0.08926   0.09135   0.10092   0.10841   0.11131

 Mulliken atomic charges:
              1
     1  C   -0.129785
     2  C    0.279750
     3  C    0.120035
     4  C    0.048422
     5  C    0.038711
     6  C   -0.101149
     7  O   -0.449265
     8  O   -0.453660
     9  O   -0.616751
    10  O   -0.627036
    11  O   -0.600796
    12  H    0.180226
    13  H    0.164206
    14  H    0.185068
    15  H    0.174277
    16  H    0.171751
    17  H    0.181611
    18  H    0.173643
    19  H    0.424655
    20  H    0.425942
    21  H    0.410144
 Sum of Mulliken atomic charges =   0.00000

 Dipole moment (field-independent basis, Debye):
    X=             -2.3680    Y=              4.1938    Z=              1.8231  Tot=              5.1497
 Quadrupole moment (field-independent basis, Debye-Ang):
   XX=            -70.9120   YY=            -63.1376   ZZ=            -65.8263
   XY=             -1.4132   XZ=             -1.5415   YZ=             -5.4871

 Normal termination of Gaussian 09 at Mon Apr 15 18:12:16 2019.
