 Gaussian 09, Revision C.01,
 Gaussian 09:  EM64L-G09RevC.01 23-Sep-2011

 ------------------------------------------------
 # mpw1pw91/6-31+g** nmr scrf=(pcm,solvent=water)
 ------------------------------------------------

 99/9=1/99;
 -------
 comment
 -------
 Charge =  0 Multiplicity = 1

                         Standard orientation:
 ---------------------------------------------------------------------
 Center     Atomic      Atomic             Coordinates (Angstroms)
 Number     Number       Type             X           Y           Z
 ---------------------------------------------------------------------
      1          6           0       -2.079764   -0.688222   -0.060198
      2          6           0       -1.243261    0.205239    0.859134
      3          6           0        0.111613   -1.384659    0.085975
      4          6           0        0.931427    0.981800   -0.212472
      5          6           0        1.045661   -0.465829   -0.748448
      6          6           0       -0.516653    1.386691    0.129546
      7          8           0       -0.242921   -0.741592    1.312877
      8          8           0       -1.115334   -1.611528   -0.595652
      9          8           0       -1.148348    1.780119   -1.084976
     10          8           0        1.772746    1.107155    0.943395
     11          8           0        2.397429   -0.892145   -0.690329
     12          1           0       -2.556290   -0.142331   -0.875479
     13          1           0       -2.834243   -1.238575    0.512581
     14          1           0       -1.792481    0.547252    1.737000
     15          1           0        0.596588   -2.336330    0.317759
     16          1           0        1.327414    1.688229   -0.945454
     17          1           0        0.724972   -0.519263   -1.793174
     18          1           0       -0.451178    2.239781    0.815632
     19          1           0       -1.957456    2.268141   -0.862648
     20          1           0        1.360723    0.546304    1.627771
     21          1           0        2.779237   -0.399403    0.062268
 ---------------------------------------------------------------------

 SCF Done:  E(RmPW1PW91) =  -610.643381730     A.U. after   12 cycles

      1  C    Isotropic =   133.7217   Anisotropy =    66.8037

      2  C    Isotropic =   119.4252   Anisotropy =    53.0372

      3  C    Isotropic =    87.8444   Anisotropy =    22.7999

      4  C    Isotropic =   124.7268   Anisotropy =    53.7437

      5  C    Isotropic =   122.2796   Anisotropy =    41.8139

      6  C    Isotropic =   125.3879   Anisotropy =    50.3706

      7  O    Isotropic =   239.0392   Anisotropy =    61.5290

      8  O    Isotropic =   260.6444   Anisotropy =   123.1516

      9  O    Isotropic =   294.7921   Anisotropy =    48.3800

     10  O    Isotropic =   293.2069   Anisotropy =    46.6947

     11  O    Isotropic =   302.2424   Anisotropy =    45.6761

     12  H    Isotropic =    27.1671   Anisotropy =     6.5798

     13  H    Isotropic =    27.9929   Anisotropy =    11.6166

     14  H    Isotropic =    26.8540   Anisotropy =     8.0561

     15  H    Isotropic =    26.2272   Anisotropy =     6.1926

     16  H    Isotropic =    27.7792   Anisotropy =     7.0511

     17  H    Isotropic =    28.0386   Anisotropy =     4.7678

     18  H    Isotropic =    27.0748   Anisotropy =     5.7867

     19  H    Isotropic =    29.8584   Anisotropy =    20.6551

     20  H    Isotropic =    29.1481   Anisotropy =    15.1444

     21  H    Isotropic =    27.8272   Anisotropy =    15.8902

 The electronic state is 1-A.
 Alpha  occ. eigenvalues --  -19.28552 -19.26976 -19.26905 -19.26900 -19.25820
 Alpha  occ. eigenvalues --  -10.35833 -10.32113 -10.32071 -10.31779 -10.30957
 Alpha  occ. eigenvalues --  -10.30476  -1.14485  -1.08770  -1.07353  -1.05436
 Alpha  occ. eigenvalues --   -1.04158  -0.81903  -0.80692  -0.70824  -0.68803
 Alpha  occ. eigenvalues --   -0.64497  -0.61352  -0.57867  -0.56475  -0.53477
 Alpha  occ. eigenvalues --   -0.51400  -0.50711  -0.49378  -0.48671  -0.46064
 Alpha  occ. eigenvalues --   -0.44160  -0.43697  -0.42155  -0.40835  -0.38770
 Alpha  occ. eigenvalues --   -0.37705  -0.36671  -0.35814  -0.34355  -0.32288
 Alpha  occ. eigenvalues --   -0.31440  -0.29438  -0.27265
 Alpha virt. eigenvalues --    0.00419   0.00834   0.02349   0.02809   0.04048
 Alpha virt. eigenvalues --    0.04370   0.04932   0.05396   0.05436   0.08262
 Alpha virt. eigenvalues --    0.08698   0.09198   0.09855   0.10417   0.11036

 Mulliken atomic charges:
              1
     1  C   -0.213319
     2  C    0.292242
     3  C    0.011307
     4  C   -0.009194
     5  C   -0.031907
     6  C   -0.151963
     7  O   -0.394967
     8  O   -0.377595
     9  O   -0.560709
    10  O   -0.576610
    11  O   -0.528212
    12  H    0.185979
    13  H    0.175729
    14  H    0.200153
    15  H    0.190650
    16  H    0.192950
    17  H    0.194671
    18  H    0.191795
    19  H    0.403936
    20  H    0.412988
    21  H    0.392076
 Sum of Mulliken atomic charges =   0.00000

 Dipole moment (field-independent basis, Debye):
    X=             -4.6237    Y=              3.0317    Z=              2.7079  Tot=              6.1565
 Quadrupole moment (field-independent basis, Debye-Ang):
   XX=            -62.3437   YY=            -66.3769   ZZ=            -67.7214
   XY=             -6.2902   XZ=             -0.2098   YZ=             -1.2735

 Normal termination of Gaussian 09 at Fri Apr 12 11:19:19 2019.
