 Gaussian 09, Revision C.01,
 Gaussian 09:  EM64L-G09RevC.01 23-Sep-2011

 -----------------------------------------------------------
 # B3LYP/6-31+G** test scrf=(pcm,solvent=water,smd,dovacuum)
 -----------------------------------------------------------

 99/5=1,9=1/99;
 -------
 comment
 -------
 Charge =  0 Multiplicity = 1

                         Standard orientation:
 ---------------------------------------------------------------------
 Center     Atomic      Atomic             Coordinates (Angstroms)
 Number     Number       Type             X           Y           Z
 ---------------------------------------------------------------------
      1          6           0       -2.171572   -0.531778    0.117376
      2          6           0       -1.182851    0.264061    0.958340
      3          6           0       -0.022241   -1.376637    0.016692
      4          6           0        0.985429    0.917238   -0.259629
      5          6           0        1.046947   -0.563518   -0.741895
      6          6           0       -0.443586    1.369738    0.123766
      7          8           0       -0.259495   -0.797441    1.286465
      8          8           0       -1.271492   -1.304210   -0.700366
      9          8           0       -1.172411    1.787682   -1.030186
     10          8           0        1.851497    1.017527    0.883265
     11          8           0        2.345721   -1.087297   -0.538651
     12          1           0       -2.813459    0.065958   -0.529676
     13          1           0       -2.784526   -1.184688    0.749710
     14          1           0       -1.591139    0.649011    1.893083
     15          1           0        0.285469   -2.417362    0.153728
     16          1           0        1.342691    1.577751   -1.055655
     17          1           0        0.828571   -0.627031   -1.813320
     18          1           0       -0.343342    2.270813    0.733404
     19          1           0       -1.215494    1.035148   -1.644222
     20          1           0        2.386552    1.819677    0.784006
     21          1           0        2.681359   -0.593989    0.236823
 ---------------------------------------------------------------------

 SCF Done:  E(RB3LYP) =  -610.797492633     A.U. after   12 cycles

 The electronic state is 1-A.
 Alpha  occ. eigenvalues --  -19.18170 -19.17632 -19.17534 -19.17190 -19.16515
 Alpha  occ. eigenvalues --  -10.28981 -10.25028 -10.24955 -10.24913 -10.24353
 Alpha  occ. eigenvalues --  -10.23754  -1.11033  -1.05453  -1.03886  -1.02211
 Alpha  occ. eigenvalues --   -1.00954  -0.78841  -0.77533  -0.67935  -0.65804
 Alpha  occ. eigenvalues --   -0.62241  -0.58213  -0.55669  -0.54206  -0.51896
 Alpha  occ. eigenvalues --   -0.50546  -0.48649  -0.45913  -0.45318  -0.44769
 Alpha  occ. eigenvalues --   -0.42448  -0.41075  -0.40515  -0.38644  -0.36636
 Alpha  occ. eigenvalues --   -0.36094  -0.35316  -0.33794  -0.33046  -0.31291
 Alpha  occ. eigenvalues --   -0.29358  -0.27561  -0.25793
 Alpha virt. eigenvalues --    0.00551   0.00906   0.02599   0.02962   0.04185
 Alpha virt. eigenvalues --    0.04871   0.05148   0.05400   0.05718   0.07967
 Alpha virt. eigenvalues --    0.08293   0.09289   0.10172   0.11134   0.11810

 Mulliken atomic charges:
              1
     1  C   -0.179995
     2  C    0.349489
     3  C    0.153432
     4  C    0.021881
     5  C    0.033082
     6  C   -0.092628
     7  O   -0.432360
     8  O   -0.477722
     9  O   -0.563383
    10  O   -0.668740
    11  O   -0.608313
    12  H    0.179944
    13  H    0.165495
    14  H    0.177973
    15  H    0.167857
    16  H    0.178027
    17  H    0.178999
    18  H    0.170400
    19  H    0.402058
    20  H    0.433821
    21  H    0.410682
 Sum of Mulliken atomic charges =   0.00000

 Dipole moment (field-independent basis, Debye):
    X=             -0.8281    Y=              3.5120    Z=              0.1643  Tot=              3.6121
 Quadrupole moment (field-independent basis, Debye-Ang):
   XX=            -62.1602   YY=            -67.7373   ZZ=            -67.4217
   XY=              9.9342   XZ=             -1.6037   YZ=              1.8640

 Normal termination of Gaussian 09 at Mon Apr 15 18:23:35 2019.
