 Gaussian 09, Revision C.01,
 Gaussian 09:  EM64L-G09RevC.01 23-Sep-2011

 -----------------------------------------------------------
 # B3LYP/6-31+G** test scrf=(pcm,solvent=water,smd,dovacuum)
 -----------------------------------------------------------

 99/5=1,9=1/99;
 -------
 comment
 -------
 Charge =  0 Multiplicity = 1

                         Standard orientation:
 ---------------------------------------------------------------------
 Center     Atomic      Atomic             Coordinates (Angstroms)
 Number     Number       Type             X           Y           Z
 ---------------------------------------------------------------------
      1          6           0       -2.121420   -0.667774    0.052180
      2          6           0       -1.219731    0.193761    0.927499
      3          6           0        0.076427   -1.372868    0.046989
      4          6           0        0.928216    0.994282   -0.249788
      5          6           0        1.079735   -0.481028   -0.714088
      6          6           0       -0.526161    1.355231    0.133155
      7          8           0       -0.240466   -0.801510    1.298384
      8          8           0       -1.150683   -1.418980   -0.702144
      9          8           0       -1.281958    1.790611   -0.995720
     10          8           0        1.737069    1.247814    0.890713
     11          8           0        2.434261   -0.833332   -0.442043
     12          1           0       -2.756770   -0.112227   -0.637843
     13          1           0       -2.736755   -1.336002    0.665810
     14          1           0       -1.695401    0.546479    1.842956
     15          1           0        0.460217   -2.385460    0.212466
     16          1           0        1.224542    1.658959   -1.074400
     17          1           0        0.870580   -0.565691   -1.787552
     18          1           0       -0.460940    2.233450    0.779767
     19          1           0       -1.254560    1.091353   -1.669645
     20          1           0        2.465973    0.602583    0.847900
     21          1           0        2.594925   -1.739887   -0.748657
 ---------------------------------------------------------------------

 SCF Done:  E(RB3LYP) =  -610.796998139     A.U. after   12 cycles

 The electronic state is 1-A.
 Alpha  occ. eigenvalues --  -19.18250 -19.17748 -19.17584 -19.17151 -19.16297
 Alpha  occ. eigenvalues --  -10.29280 -10.24941 -10.24872 -10.24840 -10.24707
 Alpha  occ. eigenvalues --  -10.23738  -1.11143  -1.05520  -1.03896  -1.02273
 Alpha  occ. eigenvalues --   -1.01009  -0.78937  -0.77563  -0.68498  -0.65599
 Alpha  occ. eigenvalues --   -0.62464  -0.58236  -0.55324  -0.53941  -0.52861
 Alpha  occ. eigenvalues --   -0.50172  -0.47642  -0.47113  -0.45026  -0.44730
 Alpha  occ. eigenvalues --   -0.43309  -0.41180  -0.39951  -0.38170  -0.37722
 Alpha  occ. eigenvalues --   -0.36375  -0.35411  -0.34370  -0.31404  -0.30521
 Alpha  occ. eigenvalues --   -0.29872  -0.27967  -0.25526
 Alpha virt. eigenvalues --    0.00732   0.00830   0.02539   0.03008   0.04149
 Alpha virt. eigenvalues --    0.04546   0.05252   0.05375   0.05747   0.08333
 Alpha virt. eigenvalues --    0.08534   0.09369   0.09782   0.10955   0.11756

 Mulliken atomic charges:
              1
     1  C   -0.182823
     2  C    0.347349
     3  C    0.091253
     4  C    0.043345
     5  C    0.066843
     6  C   -0.070746
     7  O   -0.416622
     8  O   -0.469244
     9  O   -0.573073
    10  O   -0.628581
    11  O   -0.658908
    12  H    0.177902
    13  H    0.164716
    14  H    0.178488
    15  H    0.170257
    16  H    0.157644
    17  H    0.179689
    18  H    0.170136
    19  H    0.403232
    20  H    0.418260
    21  H    0.430885
 Sum of Mulliken atomic charges =   0.00000

 Dipole moment (field-independent basis, Debye):
    X=             -0.7280    Y=             -3.4272    Z=             -2.4634  Tot=              4.2830
 Quadrupole moment (field-independent basis, Debye-Ang):
   XX=            -62.1436   YY=            -68.9174   ZZ=            -65.9770
   XY=             -6.6390   XZ=             -7.2175   YZ=              2.0990

 Normal termination of Gaussian 09 at Mon Apr 15 18:17:14 2019.
