 Gaussian 09, Revision C.01,
 Gaussian 09:  EM64L-G09RevC.01 23-Sep-2011

 -----------------------------------------------------------
 # B3LYP/6-31+G** test scrf=(pcm,solvent=water,smd,dovacuum)
 -----------------------------------------------------------

 99/5=1,9=1/99;
 -------
 comment
 -------
 Charge =  0 Multiplicity = 1

                         Standard orientation:
 ---------------------------------------------------------------------
 Center     Atomic      Atomic             Coordinates (Angstroms)
 Number     Number       Type             X           Y           Z
 ---------------------------------------------------------------------
      1          6           0        2.101155   -0.832201   -0.337524
      2          6           0        0.794320   -1.175015    0.392281
      3          6           0        0.959299    1.022520    0.408750
      4          6           0       -1.228510    0.112415   -0.519030
      5          6           0       -0.260854    1.309356   -0.513460
      6          6           0       -0.439397   -1.222290   -0.553595
      7          8           0        0.700446   -0.052121    1.288302
      8          8           0        2.074585    0.604561   -0.388565
      9          8           0       -1.388658   -2.215895   -0.165143
     10          8           0       -2.055010    0.163723    0.634430
     11          8           0       -0.987919    2.463125   -0.109778
     12          1           0        2.160434   -1.236801   -1.352236
     13          1           0        2.973230   -1.165614    0.236391
     14          1           0        0.858937   -2.082055    0.996862
     15          1           0        1.233574    1.902880    0.996977
     16          1           0       -1.854804    0.167575   -1.421883
     17          1           0        0.130681    1.438189   -1.531605
     18          1           0       -0.102852   -1.413495   -1.581522
     19          1           0       -0.948902   -3.080470   -0.142416
     20          1           0       -2.302330   -0.762886    0.806550
     21          1           0       -0.451600    3.236820   -0.345615
 ---------------------------------------------------------------------

 SCF Done:  E(RB3LYP) =  -610.798548399     A.U. after   12 cycles

 The electronic state is 1-A.
 Alpha  occ. eigenvalues --  -19.18171 -19.17582 -19.17338 -19.17114 -19.16147
 Alpha  occ. eigenvalues --  -10.29154 -10.25153 -10.25028 -10.24782 -10.24637
 Alpha  occ. eigenvalues --  -10.23829  -1.11084  -1.05603  -1.03975  -1.01928
 Alpha  occ. eigenvalues --   -1.00986  -0.78960  -0.78143  -0.67636  -0.65737
 Alpha  occ. eigenvalues --   -0.62579  -0.57272  -0.54793  -0.54650  -0.52265
 Alpha  occ. eigenvalues --   -0.51896  -0.47889  -0.46179  -0.45443  -0.44650
 Alpha  occ. eigenvalues --   -0.43126  -0.41174  -0.40425  -0.38544  -0.36345
 Alpha  occ. eigenvalues --   -0.36224  -0.35038  -0.33968  -0.33014  -0.30286
 Alpha  occ. eigenvalues --   -0.29799  -0.27349  -0.25560
 Alpha virt. eigenvalues --    0.00344   0.01731   0.01896   0.02701   0.03855
 Alpha virt. eigenvalues --    0.04575   0.05147   0.05419   0.05938   0.08394
 Alpha virt. eigenvalues --    0.08693   0.09104   0.09875   0.10783   0.11531

 Mulliken atomic charges:
              1
     1  C   -0.221713
     2  C    0.342158
     3  C    0.115064
     4  C    0.122193
     5  C    0.062491
     6  C   -0.022793
     7  O   -0.423107
     8  O   -0.462649
     9  O   -0.673451
    10  O   -0.663607
    11  O   -0.643115
    12  H    0.169619
    13  H    0.164263
    14  H    0.178045
    15  H    0.170209
    16  H    0.154528
    17  H    0.181939
    18  H    0.174641
    19  H    0.425282
    20  H    0.424679
    21  H    0.425323
 Sum of Mulliken atomic charges =   0.00000

 Dipole moment (field-independent basis, Debye):
    X=              4.0255    Y=             -4.4581    Z=             -3.9611  Tot=              7.1951
 Quadrupole moment (field-independent basis, Debye-Ang):
   XX=            -77.0042   YY=            -47.2741   ZZ=            -66.6187
   XY=              1.4314   XZ=              2.6534   YZ=             -2.2750

 Normal termination of Gaussian 09 at Tue Apr 16 02:13:40 2019.
