 Gaussian 09, Revision C.01,
 Gaussian 09:  EM64L-G09RevC.01 23-Sep-2011

 ------------------------------------------------
 # mpw1pw91/6-31+g** nmr scrf=(pcm,solvent=water)
 ------------------------------------------------

 99/9=1/99;
 -------
 comment
 -------
 Charge =  0 Multiplicity = 1

                         Standard orientation:
 ---------------------------------------------------------------------
 Center     Atomic      Atomic             Coordinates (Angstroms)
 Number     Number       Type             X           Y           Z
 ---------------------------------------------------------------------
      1          6           0        2.030654    0.617152    0.738378
      2          6           0        1.038222    1.099544   -0.330538
      3          6           0        0.998249   -1.118337   -0.373069
      4          6           0       -0.839147   -0.013670    0.946633
      5          6           0       -0.452449   -1.263185    0.124641
      6          6           0       -0.402072    1.267613    0.197576
      7          8           0        1.067542   -0.008408   -1.250354
      8          8           0        1.870985   -0.817037    0.715943
      9          8           0       -1.317276    1.429936   -0.890679
     10          8           0       -2.223012   -0.013017    1.244611
     11          8           0       -1.340669   -1.429619   -0.979721
     12          1           0        1.815652    0.997429    1.741867
     13          1           0        3.061145    0.871227    0.469838
     14          1           0        1.374202    1.989554   -0.867584
     15          1           0        1.350113   -2.007374   -0.902074
     16          1           0       -0.317805   -0.046156    1.906699
     17          1           0       -0.554588   -2.160547    0.742047
     18          1           0       -0.454216    2.132069    0.874191
     19          1           0       -1.072355    2.228418   -1.386246
     20          1           0       -2.663616   -0.213614    0.399630
     21          1           0       -1.239839   -0.620552   -1.518489
 ---------------------------------------------------------------------

 SCF Done:  E(RmPW1PW91) =  -610.652960011     A.U. after   12 cycles

      1  C    Isotropic =   130.3480   Anisotropy =    62.8373

      2  C    Isotropic =   117.4520   Anisotropy =    47.8065

      3  C    Isotropic =    92.7406   Anisotropy =    32.6570

      4  C    Isotropic =   130.4480   Anisotropy =    51.4713

      5  C    Isotropic =   121.4230   Anisotropy =    37.0396

      6  C    Isotropic =   121.0528   Anisotropy =    39.3112

      7  O    Isotropic =   258.0231   Anisotropy =    59.9933

      8  O    Isotropic =   267.0435   Anisotropy =   113.5576

      9  O    Isotropic =   295.7555   Anisotropy =    70.1776

     10  O    Isotropic =   305.8036   Anisotropy =    31.7611

     11  O    Isotropic =   300.5115   Anisotropy =    71.5420

     12  H    Isotropic =    27.7195   Anisotropy =     7.4490

     13  H    Isotropic =    27.6963   Anisotropy =    11.4890

     14  H    Isotropic =    27.1387   Anisotropy =     8.4846

     15  H    Isotropic =    26.0205   Anisotropy =     8.0329

     16  H    Isotropic =    27.8832   Anisotropy =     4.5118

     17  H    Isotropic =    27.9533   Anisotropy =     6.9512

     18  H    Isotropic =    27.5168   Anisotropy =     7.0811

     19  H    Isotropic =    29.9598   Anisotropy =    20.2370

     20  H    Isotropic =    28.5473   Anisotropy =    14.4577

     21  H    Isotropic =    28.8241   Anisotropy =    16.0968

 The electronic state is 1-A.
 Alpha  occ. eigenvalues --  -19.28048 -19.27237 -19.27127 -19.26281 -19.25977
 Alpha  occ. eigenvalues --  -10.35997 -10.32236 -10.31816 -10.31342 -10.31141
 Alpha  occ. eigenvalues --  -10.31091  -1.14709  -1.08921  -1.06724  -1.05500
 Alpha  occ. eigenvalues --   -1.04123  -0.82717  -0.80851  -0.70659  -0.67972
 Alpha  occ. eigenvalues --   -0.65517  -0.61221  -0.58476  -0.55945  -0.54473
 Alpha  occ. eigenvalues --   -0.51499  -0.50308  -0.48311  -0.48015  -0.46337
 Alpha  occ. eigenvalues --   -0.45638  -0.43758  -0.41744  -0.41414  -0.39298
 Alpha  occ. eigenvalues --   -0.37433  -0.36965  -0.36272  -0.33376  -0.32838
 Alpha  occ. eigenvalues --   -0.30095  -0.29679  -0.27774
 Alpha virt. eigenvalues --    0.00339   0.01543   0.02328   0.02716   0.03906
 Alpha virt. eigenvalues --    0.04480   0.05062   0.05466   0.05956   0.07989
 Alpha virt. eigenvalues --    0.08784   0.09460   0.10127   0.10390   0.11441

 Mulliken atomic charges:
              1
     1  C   -0.239372
     2  C    0.225656
     3  C   -0.124723
     4  C   -0.134003
     5  C    0.188823
     6  C    0.023504
     7  O   -0.366587
     8  O   -0.380910
     9  O   -0.634972
    10  O   -0.508520
    11  O   -0.547637
    12  H    0.184325
    13  H    0.182640
    14  H    0.193571
    15  H    0.187539
    16  H    0.194684
    17  H    0.184865
    18  H    0.182096
    19  H    0.402761
    20  H    0.383028
    21  H    0.403231
 Sum of Mulliken atomic charges =   0.00000

 Dipole moment (field-independent basis, Debye):
    X=              3.0532    Y=              4.6126    Z=             -0.3591  Tot=              5.5432
 Quadrupole moment (field-independent basis, Debye-Ang):
   XX=            -72.1916   YY=            -56.9734   ZZ=            -67.4928
   XY=              2.4275   XZ=              4.2772   YZ=             -2.7563

 Normal termination of Gaussian 09 at Fri Apr 12 11:27:34 2019.
