 Gaussian 09, Revision C.01,
 Gaussian 09:  EM64L-G09RevC.01 23-Sep-2011

 -----------------------------------------------------------
 # B3LYP/6-31+G** test scrf=(pcm,solvent=water,smd,dovacuum)
 -----------------------------------------------------------

 99/5=1,9=1/99;
 -------
 comment
 -------
 Charge =  0 Multiplicity = 1

                         Standard orientation:
 ---------------------------------------------------------------------
 Center     Atomic      Atomic             Coordinates (Angstroms)
 Number     Number       Type             X           Y           Z
 ---------------------------------------------------------------------
      1          6           0       -2.005090   -0.774971    0.664252
      2          6           0       -1.015308   -1.074354   -0.471232
      3          6           0       -1.042220    1.129058   -0.209923
      4          6           0        0.851773   -0.057496    0.909381
      5          6           0        0.426568    1.268291    0.247335
      6          6           0        0.420779   -1.262408    0.037773
      7          8           0       -1.096861    0.145896   -1.229032
      8          8           0       -1.874340    0.650959    0.846670
      9          8           0        1.286293   -1.350576   -1.093399
     10          8           0        2.273718   -0.060232    1.058562
     11          8           0        1.228729    1.613214   -0.873550
     12          1           0       -1.769983   -1.288071    1.601766
     13          1           0       -3.033018   -1.011534    0.370775
     14          1           0       -1.316024   -1.897237   -1.121809
     15          1           0       -1.437239    2.067618   -0.606218
     16          1           0        0.365921   -0.120837    1.888972
     17          1           0        0.526374    2.088534    0.964743
     18          1           0        0.472297   -2.189406    0.630729
     19          1           0        2.173542   -1.156882   -0.733011
     20          1           0        2.495325   -0.708812    1.747097
     21          1           0        1.163480    0.853812   -1.482555
 ---------------------------------------------------------------------

 SCF Done:  E(RB3LYP) =  -610.809186967     A.U. after   12 cycles

 The electronic state is 1-A.
 Alpha  occ. eigenvalues --  -19.18455 -19.17756 -19.17531 -19.16889 -19.16799
 Alpha  occ. eigenvalues --  -10.29379 -10.25247 -10.24808 -10.24653 -10.24539
 Alpha  occ. eigenvalues --  -10.24204  -1.11408  -1.05795  -1.03341  -1.02622
 Alpha  occ. eigenvalues --   -1.01092  -0.79640  -0.78053  -0.67643  -0.65721
 Alpha  occ. eigenvalues --   -0.62863  -0.58303  -0.55601  -0.53232  -0.52752
 Alpha  occ. eigenvalues --   -0.50150  -0.48469  -0.46405  -0.45807  -0.45208
 Alpha  occ. eigenvalues --   -0.43448  -0.41503  -0.40230  -0.38607  -0.37986
 Alpha  occ. eigenvalues --   -0.36145  -0.35667  -0.34224  -0.31728  -0.31281
 Alpha  occ. eigenvalues --   -0.29116  -0.27752  -0.26366
 Alpha virt. eigenvalues --    0.00233   0.01480   0.02630   0.02923   0.04357
 Alpha virt. eigenvalues --    0.04777   0.05305   0.05650   0.05762   0.08221
 Alpha virt. eigenvalues --    0.08721   0.09655   0.10170   0.10473   0.11833

 Mulliken atomic charges:
              1
     1  C   -0.180941
     2  C    0.287199
     3  C    0.028854
     4  C    0.018935
     5  C    0.104682
     6  C    0.042608
     7  O   -0.442894
     8  O   -0.455934
     9  O   -0.641676
    10  O   -0.666032
    11  O   -0.571263
    12  H    0.178664
    13  H    0.169370
    14  H    0.177419
    15  H    0.170981
    16  H    0.190936
    17  H    0.169914
    18  H    0.165018
    19  H    0.416062
    20  H    0.430981
    21  H    0.407118
 Sum of Mulliken atomic charges =   0.00000

 Dipole moment (field-independent basis, Debye):
    X=             -1.0265    Y=             -4.9580    Z=              4.7469  Tot=              6.9403
 Quadrupole moment (field-independent basis, Debye-Ang):
   XX=            -67.4015   YY=            -63.8266   ZZ=            -65.5999
   XY=             -2.8187   XZ=              5.3060   YZ=             -4.7377

 Normal termination of Gaussian 09 at Mon Apr 15 18:26:00 2019.
