 Gaussian 09, Revision C.01,
 Gaussian 09:  EM64L-G09RevC.01 23-Sep-2011

 ------------------------------------------------
 # mpw1pw91/6-31+g** nmr scrf=(pcm,solvent=water)
 ------------------------------------------------

 99/9=1/99;
 -------
 comment
 -------
 Charge =  0 Multiplicity = 1

                         Standard orientation:
 ---------------------------------------------------------------------
 Center     Atomic      Atomic             Coordinates (Angstroms)
 Number     Number       Type             X           Y           Z
 ---------------------------------------------------------------------
      1          6           0       -2.037599   -0.688757    0.673142
      2          6           0       -1.046925   -1.077501   -0.433198
      3          6           0       -0.990150    1.135029   -0.268560
      4          6           0        0.839212   -0.093215    0.942497
      5          6           0        0.457884    1.240140    0.260528
      6          6           0        0.394105   -1.285708    0.063145
      7          8           0       -1.064308    0.114805   -1.245411
      8          8           0       -1.867097    0.740733    0.786835
      9          8           0        1.285618   -1.427656   -1.044257
     10          8           0        2.222749   -0.173573    1.230064
     11          8           0        1.370070    1.434096   -0.823307
     12          1           0       -1.828548   -1.162145    1.637467
     13          1           0       -3.069585   -0.907101    0.379827
     14          1           0       -1.375667   -1.912551   -1.053812
     15          1           0       -1.344138    2.069533   -0.714115
     16          1           0        0.320783   -0.135374    1.903915
     17          1           0        0.533073    2.064391    0.982194
     18          1           0        0.469444   -2.215664    0.635773
     19          1           0        1.200597   -0.599793   -1.556082
     20          1           0        2.644500   -0.374157    0.375165
     21          1           0        1.174132    2.285695   -1.247047
 ---------------------------------------------------------------------

 SCF Done:  E(RmPW1PW91) =  -610.652721367     A.U. after   12 cycles

      1  C    Isotropic =   130.0268   Anisotropy =    62.0472

      2  C    Isotropic =   117.0053   Anisotropy =    47.1598

      3  C    Isotropic =    93.1321   Anisotropy =    32.2942

      4  C    Isotropic =   130.4213   Anisotropy =    51.3626

      5  C    Isotropic =   121.2236   Anisotropy =    35.9589

      6  C    Isotropic =   121.7798   Anisotropy =    40.2205

      7  O    Isotropic =   258.2213   Anisotropy =    57.3771

      8  O    Isotropic =   267.1941   Anisotropy =   113.3807

      9  O    Isotropic =   299.4893   Anisotropy =    56.2540

     10  O    Isotropic =   306.0377   Anisotropy =    32.7642

     11  O    Isotropic =   299.6799   Anisotropy =    55.1053

     12  H    Isotropic =    27.7040   Anisotropy =     7.4686

     13  H    Isotropic =    27.6573   Anisotropy =    11.4514

     14  H    Isotropic =    26.9394   Anisotropy =     8.6722

     15  H    Isotropic =    26.1643   Anisotropy =     7.9018

     16  H    Isotropic =    27.8574   Anisotropy =     4.5341

     17  H    Isotropic =    27.6091   Anisotropy =     6.7221

     18  H    Isotropic =    27.8934   Anisotropy =     7.2723

     19  H    Isotropic =    28.6548   Anisotropy =    15.7309

     20  H    Isotropic =    28.4767   Anisotropy =    14.5220

     21  H    Isotropic =    29.9034   Anisotropy =    20.8703

 The electronic state is 1-A.
 Alpha  occ. eigenvalues --  -19.28050 -19.27275 -19.27162 -19.26253 -19.25932
 Alpha  occ. eigenvalues --  -10.36198 -10.31998 -10.31459 -10.31440 -10.31331
 Alpha  occ. eigenvalues --  -10.31085  -1.14718  -1.08892  -1.06759  -1.05536
 Alpha  occ. eigenvalues --   -1.04053  -0.82516  -0.81060  -0.70556  -0.67941
 Alpha  occ. eigenvalues --   -0.65592  -0.61216  -0.58409  -0.55792  -0.54222
 Alpha  occ. eigenvalues --   -0.52108  -0.50085  -0.48405  -0.48097  -0.46734
 Alpha  occ. eigenvalues --   -0.45095  -0.43906  -0.41596  -0.40995  -0.39112
 Alpha  occ. eigenvalues --   -0.38350  -0.36673  -0.35738  -0.33488  -0.33253
 Alpha  occ. eigenvalues --   -0.30377  -0.28793  -0.28161
 Alpha virt. eigenvalues --    0.00369   0.01539   0.02362   0.02624   0.03743
 Alpha virt. eigenvalues --    0.04724   0.05050   0.05416   0.05935   0.08027
 Alpha virt. eigenvalues --    0.08620   0.09543   0.10046   0.10291   0.11294

 Mulliken atomic charges:
              1
     1  C   -0.226186
     2  C    0.316270
     3  C   -0.203466
     4  C   -0.145009
     5  C    0.297945
     6  C   -0.102595
     7  O   -0.368219
     8  O   -0.379542
     9  O   -0.562714
    10  O   -0.510024
    11  O   -0.620494
    12  H    0.184431
    13  H    0.182594
    14  H    0.194428
    15  H    0.187849
    16  H    0.194742
    17  H    0.180895
    18  H    0.186529
    19  H    0.403827
    20  H    0.384537
    21  H    0.404202
 Sum of Mulliken atomic charges =   0.00000

 Dipole moment (field-independent basis, Debye):
    X=             -2.9794    Y=              1.0974    Z=             -0.3511  Tot=              3.1944
 Quadrupole moment (field-independent basis, Debye-Ang):
   XX=            -72.0813   YY=            -55.8980   ZZ=            -68.4648
   XY=              7.4182   XZ=             -3.8907   YZ=             -6.7330

 Normal termination of Gaussian 09 at Fri Apr 12 11:27:29 2019.
