 Gaussian 09, Revision C.01,
 Gaussian 09:  EM64L-G09RevC.01 23-Sep-2011

 ------------------------------------------------
 # mpw1pw91/6-31+g** nmr scrf=(pcm,solvent=water)
 ------------------------------------------------

 99/9=1/99;
 -------
 comment
 -------
 Charge =  0 Multiplicity = 1

                         Standard orientation:
 ---------------------------------------------------------------------
 Center     Atomic      Atomic             Coordinates (Angstroms)
 Number     Number       Type             X           Y           Z
 ---------------------------------------------------------------------
      1          6           0        2.039942    0.530557    0.791768
      2          6           0        1.089571    1.095668   -0.273079
      3          6           0        0.968891   -1.115105   -0.412596
      4          6           0       -0.850233    0.020265    0.912786
      5          6           0       -0.474684   -1.241010    0.102013
      6          6           0       -0.370504    1.294787    0.185566
      7          8           0        1.094283    0.023092   -1.239041
      8          8           0        1.840162   -0.896779    0.698375
      9          8           0       -1.174945    1.606300   -0.944450
     10          8           0       -2.270415    0.087163    1.064184
     11          8           0       -1.342743   -1.358806   -1.023508
     12          1           0        1.814813    0.869964    1.807717
     13          1           0        3.083898    0.763590    0.558059
     14          1           0        1.460651    1.994230   -0.768012
     15          1           0        1.291203   -1.995110   -0.974477
     16          1           0       -0.366596   -0.028141    1.894475
     17          1           0       -0.547812   -2.133530    0.742047
     18          1           0       -0.443486    2.153370    0.861147
     19          1           0       -1.140909    0.814361   -1.513118
     20          1           0       -2.517144   -0.517689    1.783243
     21          1           0       -2.223249   -1.119781   -0.674313
 ---------------------------------------------------------------------

 SCF Done:  E(RmPW1PW91) =  -610.651028181     A.U. after   12 cycles

      1  C    Isotropic =   130.3584   Anisotropy =    61.7782

      2  C    Isotropic =   116.2311   Anisotropy =    46.2152

      3  C    Isotropic =    94.4466   Anisotropy =    34.4999

      4  C    Isotropic =   129.3711   Anisotropy =    50.7511

      5  C    Isotropic =   122.6294   Anisotropy =    37.2310

      6  C    Isotropic =   123.2055   Anisotropy =    42.4356

      7  O    Isotropic =   258.6076   Anisotropy =    60.0491

      8  O    Isotropic =   267.9597   Anisotropy =   118.7967

      9  O    Isotropic =   297.5146   Anisotropy =    42.1247

     10  O    Isotropic =   307.3786   Anisotropy =    92.7050

     11  O    Isotropic =   302.5285   Anisotropy =    16.8766

     12  H    Isotropic =    27.7593   Anisotropy =     7.4578

     13  H    Isotropic =    27.6883   Anisotropy =    11.4325

     14  H    Isotropic =    26.9949   Anisotropy =     8.7541

     15  H    Isotropic =    25.9579   Anisotropy =     7.9578

     16  H    Isotropic =    27.7189   Anisotropy =     4.4853

     17  H    Isotropic =    27.8317   Anisotropy =     7.2409

     18  H    Isotropic =    27.7820   Anisotropy =     7.0449

     19  H    Isotropic =    28.7545   Anisotropy =    15.0358

     20  H    Isotropic =    29.9628   Anisotropy =    21.8266

     21  H    Isotropic =    28.1380   Anisotropy =    16.2180

 The electronic state is 1-A.
 Alpha  occ. eigenvalues --  -19.27969 -19.27321 -19.27204 -19.26497 -19.25623
 Alpha  occ. eigenvalues --  -10.36173 -10.31880 -10.31806 -10.31498 -10.31262
 Alpha  occ. eigenvalues --  -10.31035  -1.14670  -1.09139  -1.06302  -1.05866
 Alpha  occ. eigenvalues --   -1.03986  -0.82496  -0.81154  -0.70470  -0.68409
 Alpha  occ. eigenvalues --   -0.65306  -0.60549  -0.57816  -0.55701  -0.54537
 Alpha  occ. eigenvalues --   -0.52431  -0.50285  -0.48973  -0.48106  -0.46398
 Alpha  occ. eigenvalues --   -0.45591  -0.43723  -0.41873  -0.40211  -0.39098
 Alpha  occ. eigenvalues --   -0.38587  -0.36823  -0.35710  -0.33501  -0.32889
 Alpha  occ. eigenvalues --   -0.29664  -0.29039  -0.28609
 Alpha virt. eigenvalues --    0.00123   0.01369   0.02428   0.02715   0.04159
 Alpha virt. eigenvalues --    0.04578   0.05032   0.05516   0.05768   0.07839
 Alpha virt. eigenvalues --    0.08724   0.09575   0.10023   0.10390   0.11595

 Mulliken atomic charges:
              1
     1  C   -0.231178
     2  C    0.336811
     3  C   -0.147045
     4  C   -0.068211
     5  C    0.240279
     6  C   -0.188540
     7  O   -0.371565
     8  O   -0.382196
     9  O   -0.521196
    10  O   -0.603191
    11  O   -0.565982
    12  H    0.182694
    13  H    0.182131
    14  H    0.193969
    15  H    0.186536
    16  H    0.193751
    17  H    0.177404
    18  H    0.180912
    19  H    0.393560
    20  H    0.409565
    21  H    0.401492
 Sum of Mulliken atomic charges =   0.00000

 Dipole moment (field-independent basis, Debye):
    X=              0.9040    Y=             -0.6961    Z=              4.6973  Tot=              4.8339
 Quadrupole moment (field-independent basis, Debye-Ang):
   XX=            -65.2839   YY=            -65.3762   ZZ=            -63.8352
   XY=             11.3204   XZ=             -4.3670   YZ=              0.8482

 Normal termination of Gaussian 09 at Fri Apr 12 11:31:00 2019.
