 Gaussian 09, Revision C.01,
 Gaussian 09:  EM64L-G09RevC.01 23-Sep-2011

 ------------------------------------------------
 # mpw1pw91/6-31+g** nmr scrf=(pcm,solvent=water)
 ------------------------------------------------

 99/9=1/99;
 -------
 comment
 -------
 Charge =  0 Multiplicity = 1

                         Standard orientation:
 ---------------------------------------------------------------------
 Center     Atomic      Atomic             Coordinates (Angstroms)
 Number     Number       Type             X           Y           Z
 ---------------------------------------------------------------------
      1          6           0       -2.276652    0.237504   -0.281695
      2          6           0       -1.093911    0.883588    0.445207
      3          6           0       -0.658045   -1.281162    0.343494
      4          6           0        1.157844    0.228978   -0.611949
      5          6           0        0.609133   -1.222511   -0.541751
      6          6           0        0.046064    1.305201   -0.522508
      7          8           0       -0.674378   -0.215520    1.275665
      8          8           0       -1.824952   -1.112383   -0.471110
      9          8           0        0.720231    2.487407   -0.084637
     10          8           0        2.067058    0.372555    0.478617
     11          8           0        1.619661   -2.094396   -0.060216
     12          1           0       -2.502384    0.685816   -1.253269
     13          1           0       -3.177768    0.250186    0.342720
     14          1           0       -1.379538    1.708813    1.101126
     15          1           0       -0.710744   -2.228570    0.886895
     16          1           0        1.707657    0.368862   -1.551884
     17          1           0        0.332751   -1.571686   -1.541056
     18          1           0       -0.370802    1.468031   -1.524911
     19          1           0        0.068390    3.196094    0.036707
     20          1           0        1.974435    1.291755    0.789810
     21          1           0        2.090431   -1.580204    0.622523
 ---------------------------------------------------------------------

 SCF Done:  E(RmPW1PW91) =  -610.642561787     A.U. after   12 cycles

      1  C    Isotropic =   127.7909   Anisotropy =    46.5420

      2  C    Isotropic =   115.5010   Anisotropy =    35.8448

      3  C    Isotropic =    89.4609   Anisotropy =    27.9779

      4  C    Isotropic =   130.0824   Anisotropy =    47.7539

      5  C    Isotropic =   123.9140   Anisotropy =    44.1841

      6  C    Isotropic =   123.3171   Anisotropy =    41.2363

      7  O    Isotropic =   248.3654   Anisotropy =    62.0400

      8  O    Isotropic =   260.4338   Anisotropy =   123.5941

      9  O    Isotropic =   287.9465   Anisotropy =    45.4302

     10  O    Isotropic =   321.3230   Anisotropy =    49.1797

     11  O    Isotropic =   306.1104   Anisotropy =    27.6272

     12  H    Isotropic =    27.8288   Anisotropy =     7.7906

     13  H    Isotropic =    27.9406   Anisotropy =    10.9728

     14  H    Isotropic =    27.3638   Anisotropy =     6.4417

     15  H    Isotropic =    26.2265   Anisotropy =     6.2873

     16  H    Isotropic =    27.2827   Anisotropy =     9.6489

     17  H    Isotropic =    28.1914   Anisotropy =     5.6989

     18  H    Isotropic =    27.7322   Anisotropy =     5.8767

     19  H    Isotropic =    29.4253   Anisotropy =    18.7367

     20  H    Isotropic =    27.7354   Anisotropy =    18.7316

     21  H    Isotropic =    27.8145   Anisotropy =    15.8949

 The electronic state is 1-A.
 Alpha  occ. eigenvalues --  -19.27737 -19.27649 -19.26814 -19.26098 -19.25741
 Alpha  occ. eigenvalues --  -10.35483 -10.32448 -10.32073 -10.31868 -10.31039
 Alpha  occ. eigenvalues --  -10.30679  -1.14280  -1.09447  -1.07329  -1.04714
 Alpha  occ. eigenvalues --   -1.03984  -0.82222  -0.80782  -0.70324  -0.68591
 Alpha  occ. eigenvalues --   -0.65187  -0.61027  -0.57806  -0.55639  -0.55030
 Alpha  occ. eigenvalues --   -0.52315  -0.50668  -0.48755  -0.47745  -0.46335
 Alpha  occ. eigenvalues --   -0.44662  -0.43035  -0.42714  -0.40411  -0.38262
 Alpha  occ. eigenvalues --   -0.37910  -0.36572  -0.35774  -0.33883  -0.32570
 Alpha  occ. eigenvalues --   -0.31836  -0.29109  -0.26706
 Alpha virt. eigenvalues --    0.00281   0.01577   0.02144   0.02513   0.04156
 Alpha virt. eigenvalues --    0.04419   0.04901   0.05295   0.05694   0.08352
 Alpha virt. eigenvalues --    0.08383   0.08995   0.09859   0.10734   0.11428

 Mulliken atomic charges:
              1
     1  C   -0.285514
     2  C    0.319383
     3  C   -0.002500
     4  C    0.066123
     5  C    0.021880
     6  C   -0.096089
     7  O   -0.346140
     8  O   -0.387869
     9  O   -0.609435
    10  O   -0.624188
    11  O   -0.535207
    12  H    0.177477
    13  H    0.176720
    14  H    0.188301
    15  H    0.183725
    16  H    0.174132
    17  H    0.189007
    18  H    0.184012
    19  H    0.400598
    20  H    0.413094
    21  H    0.392490
 Sum of Mulliken atomic charges =   0.00000

 Dipole moment (field-independent basis, Debye):
    X=             -3.5385    Y=              5.8127    Z=             -1.1369  Tot=              6.8994
 Quadrupole moment (field-independent basis, Debye-Ang):
   XX=            -68.8935   YY=            -62.3131   ZZ=            -64.4392
   XY=             -4.4595   XZ=              0.5734   YZ=             -1.1628

 Normal termination of Gaussian 09 at Fri Apr 12 11:37:19 2019.
