 Gaussian 09, Revision C.01,
 Gaussian 09:  EM64L-G09RevC.01 23-Sep-2011

 -----------------------------------------------------------
 # B3LYP/6-31+G** test scrf=(pcm,solvent=water,smd,dovacuum)
 -----------------------------------------------------------

 99/5=1,9=1/99;
 -------
 comment
 -------
 Charge =  0 Multiplicity = 1

                         Standard orientation:
 ---------------------------------------------------------------------
 Center     Atomic      Atomic             Coordinates (Angstroms)
 Number     Number       Type             X           Y           Z
 ---------------------------------------------------------------------
      1          6           0       -2.058075   -0.628132    0.700888
      2          6           0       -1.056875   -1.100594   -0.362053
      3          6           0       -0.990010    1.120198   -0.354876
      4          6           0        0.844014   -0.039028    0.942949
      5          6           0        0.428298    1.264833    0.213617
      6          6           0        0.372644   -1.290392    0.163435
      7          8           0       -1.043356    0.030004   -1.256675
      8          8           0       -1.891692    0.804583    0.704944
      9          8           0        1.271244   -1.531852   -0.924409
     10          8           0        2.261149   -0.071776    1.091164
     11          8           0        1.303075    1.517648   -0.882392
     12          1           0       -1.857155   -1.026772    1.700223
     13          1           0       -3.086481   -0.872127    0.415713
     14          1           0       -1.385994   -1.974436   -0.926311
     15          1           0       -1.323274    2.020618   -0.876543
     16          1           0        0.403456   -0.041196    1.944611
     17          1           0        0.445069    2.104920    0.922841
     18          1           0        0.432843   -2.176226    0.803261
     19          1           0        1.159914   -0.772654   -1.529460
     20          1           0        2.569278   -0.652851    0.367189
     21          1           0        2.199001    1.440554   -0.506342
 ---------------------------------------------------------------------

 SCF Done:  E(RB3LYP) =  -610.809934181     A.U. after   12 cycles

 The electronic state is 1-A.
 Alpha  occ. eigenvalues --  -19.18637 -19.17807 -19.17518 -19.17024 -19.16998
 Alpha  occ. eigenvalues --  -10.29621 -10.25297 -10.24991 -10.24615 -10.24396
 Alpha  occ. eigenvalues --  -10.24269  -1.11507  -1.06135  -1.03723  -1.02308
 Alpha  occ. eigenvalues --   -1.01129  -0.79657  -0.78010  -0.67819  -0.65706
 Alpha  occ. eigenvalues --   -0.63081  -0.58503  -0.56057  -0.52886  -0.51194
 Alpha  occ. eigenvalues --   -0.50728  -0.49448  -0.47533  -0.45113  -0.44651
 Alpha  occ. eigenvalues --   -0.43158  -0.42009  -0.40523  -0.39134  -0.37523
 Alpha  occ. eigenvalues --   -0.36971  -0.35433  -0.33964  -0.32290  -0.31406
 Alpha  occ. eigenvalues --   -0.28592  -0.27495  -0.27258
 Alpha virt. eigenvalues --    0.00420   0.01420   0.02791   0.02900   0.04061
 Alpha virt. eigenvalues --    0.04866   0.05384   0.05513   0.06262   0.08115
 Alpha virt. eigenvalues --    0.08772   0.09693   0.10259   0.10452   0.11713

 Mulliken atomic charges:
              1
     1  C   -0.178606
     2  C    0.322637
     3  C   -0.023217
     4  C    0.039160
     5  C    0.236653
     6  C   -0.103461
     7  O   -0.441018
     8  O   -0.448565
     9  O   -0.609207
    10  O   -0.648901
    11  O   -0.628750
    12  H    0.178910
    13  H    0.169986
    14  H    0.180858
    15  H    0.171626
    16  H    0.184282
    17  H    0.164723
    18  H    0.179684
    19  H    0.416872
    20  H    0.418033
    21  H    0.418302
 Sum of Mulliken atomic charges =   0.00000

 Dipole moment (field-independent basis, Debye):
    X=             -1.3584    Y=             -1.9710    Z=              1.7802  Tot=              2.9831
 Quadrupole moment (field-independent basis, Debye-Ang):
   XX=            -66.6475   YY=            -63.9809   ZZ=            -70.5657
   XY=              6.6365   XZ=             -2.9694   YZ=             -2.3239

 Normal termination of Gaussian 09 at Mon Apr 15 18:15:14 2019.
