 Gaussian 09, Revision C.01,
 Gaussian 09:  EM64L-G09RevC.01 23-Sep-2011

 ------------------------------------------------
 # mpw1pw91/6-31+g** nmr scrf=(pcm,solvent=water)
 ------------------------------------------------

 99/9=1/99;
 -------
 comment
 -------
 Charge =  0 Multiplicity = 1

                         Standard orientation:
 ---------------------------------------------------------------------
 Center     Atomic      Atomic             Coordinates (Angstroms)
 Number     Number       Type             X           Y           Z
 ---------------------------------------------------------------------
      1          6           0       -2.005090   -0.774971    0.664252
      2          6           0       -1.015308   -1.074354   -0.471232
      3          6           0       -1.042220    1.129058   -0.209923
      4          6           0        0.851773   -0.057496    0.909381
      5          6           0        0.426568    1.268291    0.247335
      6          6           0        0.420779   -1.262408    0.037773
      7          8           0       -1.096861    0.145896   -1.229032
      8          8           0       -1.874340    0.650959    0.846670
      9          8           0        1.286293   -1.350576   -1.093399
     10          8           0        2.273718   -0.060232    1.058562
     11          8           0        1.228729    1.613214   -0.873550
     12          1           0       -1.769983   -1.288071    1.601766
     13          1           0       -3.033018   -1.011534    0.370775
     14          1           0       -1.316024   -1.897237   -1.121809
     15          1           0       -1.437239    2.067618   -0.606218
     16          1           0        0.365921   -0.120837    1.888972
     17          1           0        0.526374    2.088534    0.964743
     18          1           0        0.472297   -2.189406    0.630729
     19          1           0        2.173542   -1.156882   -0.733011
     20          1           0        2.495325   -0.708812    1.747097
     21          1           0        1.163480    0.853812   -1.482555
 ---------------------------------------------------------------------

 SCF Done:  E(RmPW1PW91) =  -610.651664379     A.U. after   12 cycles

      1  C    Isotropic =   130.1073   Anisotropy =    62.4509

      2  C    Isotropic =   119.6627   Anisotropy =    52.2824

      3  C    Isotropic =    92.3778   Anisotropy =    32.5309

      4  C    Isotropic =   129.3697   Anisotropy =    51.1389

      5  C    Isotropic =   122.7856   Anisotropy =    39.6643

      6  C    Isotropic =   122.6444   Anisotropy =    40.1530

      7  O    Isotropic =   258.8564   Anisotropy =    60.1242

      8  O    Isotropic =   267.0737   Anisotropy =   112.4650

      9  O    Isotropic =   300.8083   Anisotropy =    15.3533

     10  O    Isotropic =   307.2682   Anisotropy =    87.8415

     11  O    Isotropic =   298.9498   Anisotropy =    60.6790

     12  H    Isotropic =    27.7620   Anisotropy =     7.4944

     13  H    Isotropic =    27.6766   Anisotropy =    11.5146

     14  H    Isotropic =    26.8887   Anisotropy =     8.5690

     15  H    Isotropic =    26.0875   Anisotropy =     8.1371

     16  H    Isotropic =    27.6724   Anisotropy =     4.4514

     17  H    Isotropic =    27.8344   Anisotropy =     6.7367

     18  H    Isotropic =    27.7861   Anisotropy =     7.6914

     19  H    Isotropic =    27.9962   Anisotropy =    16.4355

     20  H    Isotropic =    29.8918   Anisotropy =    21.6142

     21  H    Isotropic =    29.0736   Anisotropy =    15.1750

 The electronic state is 1-A.
 Alpha  occ. eigenvalues --  -19.27941 -19.27338 -19.27186 -19.26409 -19.25763
 Alpha  occ. eigenvalues --  -10.35888 -10.32144 -10.31785 -10.31609 -10.31155
 Alpha  occ. eigenvalues --  -10.31072  -1.14643  -1.09164  -1.06214  -1.05893
 Alpha  occ. eigenvalues --   -1.04057  -0.82745  -0.80980  -0.70375  -0.68415
 Alpha  occ. eigenvalues --   -0.65348  -0.60557  -0.57900  -0.55573  -0.54834
 Alpha  occ. eigenvalues --   -0.52276  -0.50665  -0.48456  -0.47835  -0.47153
 Alpha  occ. eigenvalues --   -0.45251  -0.43424  -0.41864  -0.40343  -0.39563
 Alpha  occ. eigenvalues --   -0.37797  -0.37118  -0.35844  -0.33096  -0.33074
 Alpha  occ. eigenvalues --   -0.30648  -0.29345  -0.27663
 Alpha virt. eigenvalues --    0.00115   0.01362   0.02445   0.02748   0.04247
 Alpha virt. eigenvalues --    0.04645   0.05037   0.05466   0.05633   0.08020
 Alpha virt. eigenvalues --    0.08599   0.09523   0.09929   0.10316   0.11589

 Mulliken atomic charges:
              1
     1  C   -0.226244
     2  C    0.273486
     3  C   -0.088830
     4  C   -0.071620
     5  C    0.099604
     6  C   -0.042036
     7  O   -0.373322
     8  O   -0.385026
     9  O   -0.581148
    10  O   -0.601888
    11  O   -0.508124
    12  H    0.183994
    13  H    0.182241
    14  H    0.193494
    15  H    0.186545
    16  H    0.197382
    17  H    0.180327
    18  H    0.178960
    19  H    0.399648
    20  H    0.409217
    21  H    0.393339
 Sum of Mulliken atomic charges =   0.00000

 Dipole moment (field-independent basis, Debye):
    X=             -0.9360    Y=             -4.4687    Z=              4.2358  Tot=              6.2279
 Quadrupole moment (field-independent basis, Debye-Ang):
   XX=            -66.2018   YY=            -63.3078   ZZ=            -64.9583
   XY=             -2.5467   XZ=              4.9211   YZ=             -4.2398

 Normal termination of Gaussian 09 at Fri Apr 12 11:30:31 2019.
