 Gaussian 09, Revision C.01,
 Gaussian 09:  EM64L-G09RevC.01 23-Sep-2011

 -----------------------------------------------------------
 # B3LYP/6-31+G** test scrf=(pcm,solvent=water,smd,dovacuum)
 -----------------------------------------------------------

 99/5=1,9=1/99;
 -------
 comment
 -------
 Charge =  0 Multiplicity = 1

                         Standard orientation:
 ---------------------------------------------------------------------
 Center     Atomic      Atomic             Coordinates (Angstroms)
 Number     Number       Type             X           Y           Z
 ---------------------------------------------------------------------
      1          6           0       -2.287238   -0.051664   -0.245628
      2          6           0       -1.184612    0.760527    0.432688
      3          6           0       -0.466562   -1.347152    0.333598
      4          6           0        1.123264    0.394819   -0.551017
      5          6           0        0.761859   -1.107147   -0.585941
      6          6           0       -0.117087    1.314220   -0.559125
      7          8           0       -0.593476   -0.273797    1.267800
      8          8           0       -1.667082   -1.336291   -0.433587
      9          8           0        0.269445    2.644098   -0.246415
     10          8           0        1.894010    0.663580    0.638948
     11          8           0        1.881365   -1.885497   -0.195135
     12          1           0       -2.595680    0.347050   -1.215691
     13          1           0       -3.164121   -0.152490    0.403899
     14          1           0       -1.548759    1.554574    1.085004
     15          1           0       -0.373495   -2.285293    0.886350
     16          1           0        1.785953    0.650283   -1.380514
     17          1           0        0.485469   -1.411709   -1.600303
     18          1           0       -0.541684    1.344764   -1.568445
     19          1           0        1.003683    2.558277    0.390165
     20          1           0        1.303391    0.436756    1.385299
     21          1           0        2.393397   -1.320586    0.413898
 ---------------------------------------------------------------------

 SCF Done:  E(RB3LYP) =  -610.803799762     A.U. after   12 cycles

 The electronic state is 1-A.
 Alpha  occ. eigenvalues --  -19.18805 -19.17722 -19.17671 -19.16920 -19.16842
 Alpha  occ. eigenvalues --  -10.29407 -10.25217 -10.25079 -10.25003 -10.24727
 Alpha  occ. eigenvalues --  -10.24022  -1.11237  -1.06081  -1.03940  -1.02021
 Alpha  occ. eigenvalues --   -1.01134  -0.79181  -0.78046  -0.67369  -0.66413
 Alpha  occ. eigenvalues --   -0.62463  -0.59249  -0.55878  -0.52918  -0.52337
 Alpha  occ. eigenvalues --   -0.50568  -0.48347  -0.48107  -0.44820  -0.44257
 Alpha  occ. eigenvalues --   -0.42315  -0.41176  -0.40809  -0.40589  -0.36915
 Alpha  occ. eigenvalues --   -0.35507  -0.34762  -0.34550  -0.33301  -0.31463
 Alpha  occ. eigenvalues --   -0.30464  -0.27249  -0.26204
 Alpha virt. eigenvalues --    0.00423   0.01805   0.02586   0.02936   0.04153
 Alpha virt. eigenvalues --    0.04558   0.05152   0.05445   0.05628   0.08198
 Alpha virt. eigenvalues --    0.08541   0.09035   0.10436   0.10695   0.11311

 Mulliken atomic charges:
              1
     1  C   -0.226603
     2  C    0.375869
     3  C    0.142548
     4  C    0.118812
     5  C   -0.003563
     6  C   -0.087820
     7  O   -0.480901
     8  O   -0.455292
     9  O   -0.607629
    10  O   -0.676949
    11  O   -0.595422
    12  H    0.173386
    13  H    0.166952
    14  H    0.183893
    15  H    0.174373
    16  H    0.175983
    17  H    0.183099
    18  H    0.179851
    19  H    0.407797
    20  H    0.443386
    21  H    0.408231
 Sum of Mulliken atomic charges =   0.00000

 Dipole moment (field-independent basis, Debye):
    X=             -1.8293    Y=              1.5023    Z=              0.4327  Tot=              2.4063
 Quadrupole moment (field-independent basis, Debye-Ang):
   XX=            -66.1702   YY=            -79.9284   ZZ=            -62.2501
   XY=             -1.0531   XZ=              1.7311   YZ=             -0.2511

 Normal termination of Gaussian 09 at Mon Apr 15 18:25:52 2019.
