 Gaussian 09, Revision C.01,
 Gaussian 09:  EM64L-G09RevC.01 23-Sep-2011

 ------------------------------------------------
 # mpw1pw91/6-31+g** nmr scrf=(pcm,solvent=water)
 ------------------------------------------------

 99/9=1/99;
 -------
 comment
 -------
 Charge =  0 Multiplicity = 1

                         Standard orientation:
 ---------------------------------------------------------------------
 Center     Atomic      Atomic             Coordinates (Angstroms)
 Number     Number       Type             X           Y           Z
 ---------------------------------------------------------------------
      1          6           0        2.057223    0.665315    0.668772
      2          6           0        1.039197    1.084553   -0.400442
      3          6           0        1.008285   -1.135264   -0.313963
      4          6           0       -0.845311    0.030086    0.941922
      5          6           0       -0.430148   -1.266788    0.211599
      6          6           0       -0.370122    1.289448    0.166186
      7          8           0        1.044540   -0.077694   -1.254233
      8          8           0        1.890443   -0.766327    0.742855
      9          8           0       -1.241166    1.532603   -0.935771
     10          8           0       -2.263765    0.068505    1.083961
     11          8           0       -1.329935   -1.522000   -0.870218
     12          1           0        1.870124    1.107664    1.651721
     13          1           0        3.081289    0.895582    0.357686
     14          1           0        1.349959    1.941661   -0.999859
     15          1           0        1.358578   -2.050152   -0.798096
     16          1           0       -0.407494    0.036805    1.944613
     17          1           0       -0.515090   -2.123982    0.885450
     18          1           0       -0.362995    2.156048    0.844812
     19          1           0       -2.137368    1.479275   -0.555339
     20          1           0       -2.597771   -0.538864    0.393910
     21          1           0       -1.194921   -0.788822   -1.502083
 ---------------------------------------------------------------------

 SCF Done:  E(RmPW1PW91) =  -610.654119735     A.U. after   12 cycles

      1  C    Isotropic =   130.0426   Anisotropy =    62.6911

      2  C    Isotropic =   119.2767   Anisotropy =    52.4189

      3  C    Isotropic =    93.7484   Anisotropy =    33.5920

      4  C    Isotropic =   130.7515   Anisotropy =    50.6028

      5  C    Isotropic =   124.0302   Anisotropy =    41.7498

      6  C    Isotropic =   124.2862   Anisotropy =    41.2565

      7  O    Isotropic =   260.6437   Anisotropy =    61.3820

      8  O    Isotropic =   268.4299   Anisotropy =   115.6029

      9  O    Isotropic =   301.5391   Anisotropy =    23.8100

     10  O    Isotropic =   308.2957   Anisotropy =    40.1270

     11  O    Isotropic =   299.4094   Anisotropy =    69.4100

     12  H    Isotropic =    27.7032   Anisotropy =     7.5691

     13  H    Isotropic =    27.6451   Anisotropy =    11.4980

     14  H    Isotropic =    26.8714   Anisotropy =     8.5952

     15  H    Isotropic =    25.9885   Anisotropy =     8.1559

     16  H    Isotropic =    27.7959   Anisotropy =     5.5755

     17  H    Isotropic =    27.9714   Anisotropy =     7.4251

     18  H    Isotropic =    27.7782   Anisotropy =     7.9741

     19  H    Isotropic =    28.6250   Anisotropy =    16.7164

     20  H    Isotropic =    28.1951   Anisotropy =    16.4641

     21  H    Isotropic =    29.4138   Anisotropy =    14.6814

 The electronic state is 1-A.
 Alpha  occ. eigenvalues --  -19.28216 -19.27370 -19.27277 -19.26701 -19.26449
 Alpha  occ. eigenvalues --  -10.36257 -10.32218 -10.31643 -10.31594 -10.31544
 Alpha  occ. eigenvalues --  -10.31149  -1.14879  -1.09554  -1.07023  -1.05583
 Alpha  occ. eigenvalues --   -1.04237  -0.82874  -0.81002  -0.70649  -0.68462
 Alpha  occ. eigenvalues --   -0.65631  -0.60915  -0.58505  -0.55355  -0.53494
 Alpha  occ. eigenvalues --   -0.52519  -0.51844  -0.49657  -0.48051  -0.46713
 Alpha  occ. eigenvalues --   -0.44855  -0.43131  -0.42381  -0.41287  -0.39515
 Alpha  occ. eigenvalues --   -0.37775  -0.37039  -0.36439  -0.34228  -0.32830
 Alpha  occ. eigenvalues --   -0.30745  -0.29335  -0.28315
 Alpha virt. eigenvalues --    0.00368   0.01297   0.02556   0.02708   0.04154
 Alpha virt. eigenvalues --    0.04608   0.05053   0.05246   0.06108   0.08116
 Alpha virt. eigenvalues --    0.08554   0.09473   0.10006   0.10247   0.11582

 Mulliken atomic charges:
              1
     1  C   -0.227326
     2  C    0.273671
     3  C   -0.115483
     4  C   -0.035279
     5  C    0.089220
     6  C   -0.028005
     7  O   -0.370053
     8  O   -0.380952
     9  O   -0.592566
    10  O   -0.594878
    11  O   -0.547724
    12  H    0.185293
    13  H    0.182977
    14  H    0.194427
    15  H    0.190753
    16  H    0.193087
    17  H    0.194365
    18  H    0.179287
    19  H    0.398417
    20  H    0.402563
    21  H    0.408207
 Sum of Mulliken atomic charges =   0.00000

 Dipole moment (field-independent basis, Debye):
    X=              1.3488    Y=              1.7722    Z=              1.4859  Tot=              2.6773
 Quadrupole moment (field-independent basis, Debye-Ang):
   XX=            -65.6329   YY=            -63.1363   ZZ=            -69.5970
   XY=              3.5444   XZ=              2.4671   YZ=              2.2859

 Normal termination of Gaussian 09 at Fri Apr 12 11:24:11 2019.
