 Gaussian 09, Revision C.01,
 Gaussian 09:  EM64L-G09RevC.01 23-Sep-2011

 -----------------------------------------------------------
 # B3LYP/6-31+G** test scrf=(pcm,solvent=water,smd,dovacuum)
 -----------------------------------------------------------

 99/5=1,9=1/99;
 -------
 comment
 -------
 Charge =  0 Multiplicity = 1

                         Standard orientation:
 ---------------------------------------------------------------------
 Center     Atomic      Atomic             Coordinates (Angstroms)
 Number     Number       Type             X           Y           Z
 ---------------------------------------------------------------------
      1          6           0       -2.282615    0.338333   -0.257928
      2          6           0       -1.066530    0.930675    0.456768
      3          6           0       -0.720093   -1.252328    0.330518
      4          6           0        1.150013    0.195921   -0.598914
      5          6           0        0.551024   -1.236963   -0.551242
      6          6           0        0.083878    1.319372   -0.516011
      7          8           0       -0.683485   -0.197295    1.273503
      8          8           0       -1.877159   -1.021929   -0.482077
      9          8           0        0.705745    2.539315   -0.143787
     10          8           0        2.024049    0.348039    0.543115
     11          8           0        1.525022   -2.152515   -0.079742
     12          1           0       -2.510676    0.810364   -1.217621
     13          1           0       -3.172533    0.366884    0.382370
     14          1           0       -1.299405    1.767619    1.116553
     15          1           0       -0.814304   -2.202833    0.863107
     16          1           0        1.736167    0.322820   -1.512495
     17          1           0        0.266091   -1.556904   -1.558076
     18          1           0       -0.332981    1.483842   -1.515270
     19          1           0        1.345394    2.287106    0.548736
     20          1           0        2.925318    0.487798    0.214123
     21          1           0        2.009480   -1.661661    0.611332
 ---------------------------------------------------------------------

 SCF Done:  E(RB3LYP) =  -610.802918674     A.U. after   12 cycles

 The electronic state is 1-A.
 Alpha  occ. eigenvalues --  -19.18136 -19.17889 -19.17389 -19.16727 -19.16647
 Alpha  occ. eigenvalues --  -10.28987 -10.25234 -10.24735 -10.24686 -10.24460
 Alpha  occ. eigenvalues --  -10.23758  -1.10939  -1.05962  -1.03798  -1.01813
 Alpha  occ. eigenvalues --   -1.00958  -0.78874  -0.77893  -0.67037  -0.65925
 Alpha  occ. eigenvalues --   -0.62433  -0.58213  -0.55358  -0.54248  -0.51977
 Alpha  occ. eigenvalues --   -0.50759  -0.48511  -0.46287  -0.45673  -0.44443
 Alpha  occ. eigenvalues --   -0.42543  -0.40991  -0.40548  -0.37907  -0.36538
 Alpha  occ. eigenvalues --   -0.36003  -0.34842  -0.34209  -0.33120  -0.31287
 Alpha  occ. eigenvalues --   -0.30344  -0.27000  -0.25854
 Alpha virt. eigenvalues --   -0.00018   0.01696   0.02627   0.03009   0.04378
 Alpha virt. eigenvalues --    0.04638   0.04963   0.05240   0.05901   0.08089
 Alpha virt. eigenvalues --    0.08518   0.09087   0.10612   0.10858   0.11627

 Mulliken atomic charges:
              1
     1  C   -0.229029
     2  C    0.377285
     3  C    0.144362
     4  C    0.099702
     5  C    0.034747
     6  C   -0.040918
     7  O   -0.447412
     8  O   -0.464651
     9  O   -0.617087
    10  O   -0.727821
    11  O   -0.600620
    12  H    0.170413
    13  H    0.163226
    14  H    0.177239
    15  H    0.167487
    16  H    0.177409
    17  H    0.178775
    18  H    0.175984
    19  H    0.405552
    20  H    0.447847
    21  H    0.407509
 Sum of Mulliken atomic charges =   0.00000

 Dipole moment (field-independent basis, Debye):
    X=              1.5787    Y=              2.3240    Z=             -1.5712  Tot=              3.2190
 Quadrupole moment (field-independent basis, Debye-Ang):
   XX=            -54.4239   YY=            -79.2506   ZZ=            -65.5533
   XY=             -0.8910   XZ=             -0.2335   YZ=             -0.7874

 Normal termination of Gaussian 09 at Mon Apr 15 18:32:47 2019.
