 Gaussian 09, Revision C.01,
 Gaussian 09:  EM64L-G09RevC.01 23-Sep-2011

 ------------------------------------------------
 # mpw1pw91/6-31+g** nmr scrf=(pcm,solvent=water)
 ------------------------------------------------

 99/9=1/99;
 -------
 comment
 -------
 Charge =  0 Multiplicity = 1

                         Standard orientation:
 ---------------------------------------------------------------------
 Center     Atomic      Atomic             Coordinates (Angstroms)
 Number     Number       Type             X           Y           Z
 ---------------------------------------------------------------------
      1          6           0       -2.058075   -0.628132    0.700888
      2          6           0       -1.056875   -1.100594   -0.362053
      3          6           0       -0.990010    1.120198   -0.354876
      4          6           0        0.844014   -0.039028    0.942949
      5          6           0        0.428298    1.264833    0.213617
      6          6           0        0.372644   -1.290392    0.163435
      7          8           0       -1.043356    0.030004   -1.256675
      8          8           0       -1.891692    0.804583    0.704944
      9          8           0        1.271244   -1.531852   -0.924409
     10          8           0        2.261149   -0.071776    1.091164
     11          8           0        1.303075    1.517648   -0.882392
     12          1           0       -1.857155   -1.026772    1.700223
     13          1           0       -3.086481   -0.872127    0.415713
     14          1           0       -1.385994   -1.974436   -0.926311
     15          1           0       -1.323274    2.020618   -0.876543
     16          1           0        0.403456   -0.041196    1.944611
     17          1           0        0.445069    2.104920    0.922841
     18          1           0        0.432843   -2.176226    0.803261
     19          1           0        1.159914   -0.772654   -1.529460
     20          1           0        2.569278   -0.652851    0.367189
     21          1           0        2.199001    1.440554   -0.506342
 ---------------------------------------------------------------------

 SCF Done:  E(RmPW1PW91) =  -610.653907454     A.U. after   12 cycles

      1  C    Isotropic =   130.4576   Anisotropy =    62.5885

      2  C    Isotropic =   117.9421   Anisotropy =    47.6027

      3  C    Isotropic =    94.1099   Anisotropy =    34.5191

      4  C    Isotropic =   130.7276   Anisotropy =    50.2899

      5  C    Isotropic =   124.2846   Anisotropy =    38.2070

      6  C    Isotropic =   123.8787   Anisotropy =    44.9159

      7  O    Isotropic =   260.8329   Anisotropy =    60.5124

      8  O    Isotropic =   268.9114   Anisotropy =   119.6729

      9  O    Isotropic =   298.7042   Anisotropy =    53.6916

     10  O    Isotropic =   308.4721   Anisotropy =    44.0194

     11  O    Isotropic =   303.9204   Anisotropy =    24.1573

     12  H    Isotropic =    27.7016   Anisotropy =     7.5007

     13  H    Isotropic =    27.6363   Anisotropy =    11.4259

     14  H    Isotropic =    26.8850   Anisotropy =     8.7570

     15  H    Isotropic =    25.9505   Anisotropy =     8.0068

     16  H    Isotropic =    27.8205   Anisotropy =     5.5085

     17  H    Isotropic =    27.8197   Anisotropy =     7.4985

     18  H    Isotropic =    27.9000   Anisotropy =     7.6815

     19  H    Isotropic =    29.0612   Anisotropy =    14.6319

     20  H    Isotropic =    28.1389   Anisotropy =    16.5848

     21  H    Isotropic =    28.7921   Anisotropy =    16.8003

 The electronic state is 1-A.
 Alpha  occ. eigenvalues --  -19.28232 -19.27313 -19.27161 -19.26617 -19.26558
 Alpha  occ. eigenvalues --  -10.36256 -10.32245 -10.31983 -10.31572 -10.31192
 Alpha  occ. eigenvalues --  -10.31178  -1.14847  -1.09534  -1.07036  -1.05537
 Alpha  occ. eigenvalues --   -1.04212  -0.82804  -0.81060  -0.70674  -0.68443
 Alpha  occ. eigenvalues --   -0.65673  -0.60906  -0.58458  -0.55111  -0.53446
 Alpha  occ. eigenvalues --   -0.52913  -0.51731  -0.49673  -0.47212  -0.46771
 Alpha  occ. eigenvalues --   -0.45189  -0.44098  -0.42374  -0.40813  -0.39194
 Alpha  occ. eigenvalues --   -0.38651  -0.37093  -0.35696  -0.34005  -0.33161
 Alpha  occ. eigenvalues --   -0.30223  -0.29104  -0.28840
 Alpha virt. eigenvalues --    0.00375   0.01307   0.02549   0.02697   0.03979
 Alpha virt. eigenvalues --    0.04694   0.05120   0.05291   0.06116   0.07936
 Alpha virt. eigenvalues --    0.08639   0.09566   0.10007   0.10281   0.11463

 Mulliken atomic charges:
              1
     1  C   -0.226471
     2  C    0.311136
     3  C   -0.150357
     4  C   -0.043191
     5  C    0.249061
     6  C   -0.191591
     7  O   -0.372030
     8  O   -0.375812
     9  O   -0.561995
    10  O   -0.592645
    11  O   -0.577398
    12  H    0.184762
    13  H    0.183365
    14  H    0.198621
    15  H    0.187038
    16  H    0.191823
    17  H    0.177972
    18  H    0.195277
    19  H    0.409125
    20  H    0.403037
    21  H    0.400271
 Sum of Mulliken atomic charges =   0.00000

 Dipole moment (field-independent basis, Debye):
    X=             -1.3463    Y=             -1.7684    Z=              1.5333  Tot=              2.7002
 Quadrupole moment (field-independent basis, Debye-Ang):
   XX=            -65.6076   YY=            -63.2806   ZZ=            -69.4321
   XY=              6.0521   XZ=             -2.7139   YZ=             -2.1573

 Normal termination of Gaussian 09 at Fri Apr 12 11:25:16 2019.
