 Gaussian 09, Revision C.01,
 Gaussian 09:  EM64L-G09RevC.01 23-Sep-2011

 -----------------------------------------------------------
 # B3LYP/6-31+G** test scrf=(pcm,solvent=water,smd,dovacuum)
 -----------------------------------------------------------

 99/5=1,9=1/99;
 -------
 comment
 -------
 Charge =  0 Multiplicity = 1

                         Standard orientation:
 ---------------------------------------------------------------------
 Center     Atomic      Atomic             Coordinates (Angstroms)
 Number     Number       Type             X           Y           Z
 ---------------------------------------------------------------------
      1          6           0        2.039942    0.530557    0.791768
      2          6           0        1.089571    1.095668   -0.273079
      3          6           0        0.968891   -1.115105   -0.412596
      4          6           0       -0.850233    0.020265    0.912786
      5          6           0       -0.474684   -1.241010    0.102013
      6          6           0       -0.370504    1.294787    0.185566
      7          8           0        1.094283    0.023092   -1.239041
      8          8           0        1.840162   -0.896779    0.698375
      9          8           0       -1.174945    1.606300   -0.944450
     10          8           0       -2.270415    0.087163    1.064184
     11          8           0       -1.342743   -1.358806   -1.023508
     12          1           0        1.814813    0.869964    1.807717
     13          1           0        3.083898    0.763590    0.558059
     14          1           0        1.460651    1.994230   -0.768012
     15          1           0        1.291203   -1.995110   -0.974477
     16          1           0       -0.366596   -0.028141    1.894475
     17          1           0       -0.547812   -2.133530    0.742047
     18          1           0       -0.443486    2.153370    0.861147
     19          1           0       -1.140909    0.814361   -1.513118
     20          1           0       -2.517144   -0.517689    1.783243
     21          1           0       -2.223249   -1.119781   -0.674313
 ---------------------------------------------------------------------

 SCF Done:  E(RB3LYP) =  -610.808774003     A.U. after   12 cycles

 The electronic state is 1-A.
 Alpha  occ. eigenvalues --  -19.18491 -19.17749 -19.17518 -19.17027 -19.16624
 Alpha  occ. eigenvalues --  -10.29583 -10.25069 -10.24817 -10.24737 -10.24463
 Alpha  occ. eigenvalues --  -10.24196  -1.11429  -1.05787  -1.03409  -1.02575
 Alpha  occ. eigenvalues --   -1.01057  -0.79479  -0.78148  -0.67751  -0.65721
 Alpha  occ. eigenvalues --   -0.62829  -0.58298  -0.55494  -0.53355  -0.52494
 Alpha  occ. eigenvalues --   -0.50252  -0.48244  -0.46873  -0.46094  -0.44457
 Alpha  occ. eigenvalues --   -0.43662  -0.41814  -0.40264  -0.38577  -0.37489
 Alpha  occ. eigenvalues --   -0.37045  -0.35188  -0.34160  -0.31661  -0.31546
 Alpha  occ. eigenvalues --   -0.28203  -0.27493  -0.27246
 Alpha virt. eigenvalues --    0.00237   0.01476   0.02603   0.02908   0.04198
 Alpha virt. eigenvalues --    0.04767   0.05264   0.05728   0.05926   0.08002
 Alpha virt. eigenvalues --    0.08850   0.09678   0.10268   0.10535   0.11796

 Mulliken atomic charges:
              1
     1  C   -0.184251
     2  C    0.347700
     3  C   -0.027595
     4  C    0.011037
     5  C    0.260439
     6  C   -0.108133
     7  O   -0.441689
     8  O   -0.454535
     9  O   -0.588157
    10  O   -0.666806
    11  O   -0.623672
    12  H    0.178101
    13  H    0.169277
    14  H    0.177123
    15  H    0.171832
    16  H    0.189392
    17  H    0.163737
    18  H    0.169289
    19  H    0.407492
    20  H    0.431281
    21  H    0.418140
 Sum of Mulliken atomic charges =   0.00000

 Dipole moment (field-independent basis, Debye):
    X=              0.9994    Y=             -0.7645    Z=              5.2640  Tot=              5.4123
 Quadrupole moment (field-independent basis, Debye-Ang):
   XX=            -66.3862   YY=            -66.1131   ZZ=            -64.3453
   XY=             12.4518   XZ=             -4.6984   YZ=              0.8604

 Normal termination of Gaussian 09 at Mon Apr 15 18:40:25 2019.
