 Gaussian 09, Revision C.01,
 Gaussian 09:  EM64L-G09RevC.01 23-Sep-2011

 ------------------------------------------------
 # mpw1pw91/6-31+g** nmr scrf=(pcm,solvent=water)
 ------------------------------------------------

 99/9=1/99;
 -------
 comment
 -------
 Charge =  0 Multiplicity = 1

                         Standard orientation:
 ---------------------------------------------------------------------
 Center     Atomic      Atomic             Coordinates (Angstroms)
 Number     Number       Type             X           Y           Z
 ---------------------------------------------------------------------
      1          6           0        2.101155   -0.832201   -0.337524
      2          6           0        0.794320   -1.175015    0.392281
      3          6           0        0.959299    1.022520    0.408750
      4          6           0       -1.228510    0.112415   -0.519030
      5          6           0       -0.260854    1.309356   -0.513460
      6          6           0       -0.439397   -1.222290   -0.553595
      7          8           0        0.700446   -0.052121    1.288302
      8          8           0        2.074585    0.604561   -0.388565
      9          8           0       -1.388658   -2.215895   -0.165143
     10          8           0       -2.055010    0.163723    0.634430
     11          8           0       -0.987919    2.463125   -0.109778
     12          1           0        2.160434   -1.236801   -1.352236
     13          1           0        2.973230   -1.165614    0.236391
     14          1           0        0.858937   -2.082055    0.996862
     15          1           0        1.233574    1.902880    0.996977
     16          1           0       -1.854804    0.167575   -1.421883
     17          1           0        0.130681    1.438189   -1.531605
     18          1           0       -0.102852   -1.413495   -1.581522
     19          1           0       -0.948902   -3.080470   -0.142416
     20          1           0       -2.302330   -0.762886    0.806550
     21          1           0       -0.451600    3.236820   -0.345615
 ---------------------------------------------------------------------

 SCF Done:  E(RmPW1PW91) =  -610.637230716     A.U. after   12 cycles

      1  C    Isotropic =   128.0132   Anisotropy =    48.2011

      2  C    Isotropic =   115.2689   Anisotropy =    37.0634

      3  C    Isotropic =    89.1269   Anisotropy =    25.4739

      4  C    Isotropic =   128.8434   Anisotropy =    46.4033

      5  C    Isotropic =   120.3278   Anisotropy =    40.3746

      6  C    Isotropic =   122.1490   Anisotropy =    40.7417

      7  O    Isotropic =   243.1443   Anisotropy =    63.4617

      8  O    Isotropic =   255.1986   Anisotropy =   130.4277

      9  O    Isotropic =   289.7623   Anisotropy =    43.2511

     10  O    Isotropic =   320.0185   Anisotropy =    36.7832

     11  O    Isotropic =   298.4064   Anisotropy =    39.0428

     12  H    Isotropic =    27.8968   Anisotropy =     7.6764

     13  H    Isotropic =    27.9149   Anisotropy =    10.7790

     14  H    Isotropic =    27.3271   Anisotropy =     6.4155

     15  H    Isotropic =    26.2573   Anisotropy =     6.1507

     16  H    Isotropic =    27.2049   Anisotropy =     9.1009

     17  H    Isotropic =    28.0374   Anisotropy =     4.3942

     18  H    Isotropic =    27.8682   Anisotropy =     5.6562

     19  H    Isotropic =    29.4512   Anisotropy =    18.6004

     20  H    Isotropic =    28.3177   Anisotropy =    17.7733

     21  H    Isotropic =    29.5533   Anisotropy =    19.1913

 The electronic state is 1-A.
 Alpha  occ. eigenvalues --  -19.27496 -19.27481 -19.26700 -19.26372 -19.24944
 Alpha  occ. eigenvalues --  -10.35641 -10.32153 -10.31963 -10.31428 -10.31249
 Alpha  occ. eigenvalues --  -10.30625  -1.14218  -1.08872  -1.07137  -1.04773
 Alpha  occ. eigenvalues --   -1.03818  -0.82037  -0.80982  -0.70380  -0.68282
 Alpha  occ. eigenvalues --   -0.65047  -0.59407  -0.57115  -0.56760  -0.54495
 Alpha  occ. eigenvalues --   -0.53930  -0.49742  -0.48213  -0.47524  -0.46475
 Alpha  occ. eigenvalues --   -0.44867  -0.42986  -0.42049  -0.40189  -0.37785
 Alpha  occ. eigenvalues --   -0.37591  -0.36667  -0.35358  -0.34518  -0.31922
 Alpha  occ. eigenvalues --   -0.30981  -0.28757  -0.26770
 Alpha virt. eigenvalues --    0.00256   0.01560   0.01700   0.02480   0.03652
 Alpha virt. eigenvalues --    0.04406   0.05013   0.05236   0.05811   0.08240
 Alpha virt. eigenvalues --    0.08554   0.08919   0.09597   0.10622   0.11350

 Mulliken atomic charges:
              1
     1  C   -0.280613
     2  C    0.314912
     3  C   -0.027190
     4  C    0.057024
     5  C    0.048486
     6  C   -0.084302
     7  O   -0.330854
     8  O   -0.387085
     9  O   -0.613317
    10  O   -0.591585
    11  O   -0.570811
    12  H    0.175579
    13  H    0.176975
    14  H    0.188670
    15  H    0.181385
    16  H    0.167527
    17  H    0.191690
    18  H    0.181259
    19  H    0.401073
    20  H    0.403960
    21  H    0.397219
 Sum of Mulliken atomic charges =   0.00000

 Dipole moment (field-independent basis, Debye):
    X=              3.6026    Y=             -4.0158    Z=             -3.4262  Tot=              6.3910
 Quadrupole moment (field-independent basis, Debye-Ang):
   XX=            -75.2154   YY=            -48.0274   ZZ=            -66.0811
   XY=              1.2982   XZ=              2.3678   YZ=             -2.0637

 Normal termination of Gaussian 09 at Fri Apr 12 11:37:47 2019.
