 Gaussian 09, Revision C.01,
 Gaussian 09:  EM64L-G09RevC.01 23-Sep-2011

 -----------------------------------------------------------
 # B3LYP/6-31+G** test scrf=(pcm,solvent=water,smd,dovacuum)
 -----------------------------------------------------------

 99/5=1,9=1/99;
 -------
 comment
 -------
 Charge =  0 Multiplicity = 1

                         Standard orientation:
 ---------------------------------------------------------------------
 Center     Atomic      Atomic             Coordinates (Angstroms)
 Number     Number       Type             X           Y           Z
 ---------------------------------------------------------------------
      1          6           0       -2.291256    0.143790   -0.271439
      2          6           0       -1.138726    0.846640    0.449650
      3          6           0       -0.598538   -1.293663    0.336959
      4          6           0        1.139627    0.314474   -0.608446
      5          6           0        0.657369   -1.157910   -0.557182
      6          6           0       -0.023042    1.339223   -0.514476
      7          8           0       -0.661180   -0.240734    1.274148
      8          8           0       -1.768909   -1.181036   -0.476808
      9          8           0        0.497742    2.599654   -0.116943
     10          8           0        2.013059    0.593035    0.485786
     11          8           0        1.763563   -1.898040   -0.039445
     12          1           0       -2.547020    0.584497   -1.238775
     13          1           0       -3.187738    0.099308    0.357951
     14          1           0       -1.453492    1.658877    1.106187
     15          1           0       -0.611995   -2.245901    0.877877
     16          1           0        1.687767    0.482612   -1.544442
     17          1           0        0.398727   -1.502192   -1.565616
     18          1           0       -0.453648    1.490891   -1.509888
     19          1           0        1.155247    2.389183    0.572626
     20          1           0        2.287795   -0.271167    0.843345
     21          1           0        1.497553   -2.824464    0.076451
 ---------------------------------------------------------------------

 SCF Done:  E(RB3LYP) =  -610.799817070     A.U. after   12 cycles

 The electronic state is 1-A.
 Alpha  occ. eigenvalues --  -19.18242 -19.17893 -19.17509 -19.16630 -19.16586
 Alpha  occ. eigenvalues --  -10.29390 -10.25111 -10.24990 -10.24731 -10.24691
 Alpha  occ. eigenvalues --  -10.23821  -1.11160  -1.06035  -1.04123  -1.01642
 Alpha  occ. eigenvalues --   -1.01098  -0.78980  -0.77945  -0.67447  -0.65963
 Alpha  occ. eigenvalues --   -0.62678  -0.58937  -0.55107  -0.53774  -0.52802
 Alpha  occ. eigenvalues --   -0.49829  -0.48258  -0.47348  -0.45867  -0.44676
 Alpha  occ. eigenvalues --   -0.42179  -0.41176  -0.40564  -0.38255  -0.37060
 Alpha  occ. eigenvalues --   -0.36325  -0.35076  -0.34545  -0.32299  -0.30760
 Alpha  occ. eigenvalues --   -0.30482  -0.27196  -0.25633
 Alpha virt. eigenvalues --    0.00419   0.01690   0.02414   0.02643   0.04161
 Alpha virt. eigenvalues --    0.04635   0.05162   0.05482   0.05875   0.08510
 Alpha virt. eigenvalues --    0.08578   0.09100   0.10208   0.10725   0.11588

 Mulliken atomic charges:
              1
     1  C   -0.225633
     2  C    0.366049
     3  C    0.066658
     4  C    0.112170
     5  C    0.076802
     6  C   -0.024466
     7  O   -0.431429
     8  O   -0.457892
     9  O   -0.617254
    10  O   -0.668009
    11  O   -0.646021
    12  H    0.171297
    13  H    0.164437
    14  H    0.178095
    15  H    0.170120
    16  H    0.157664
    17  H    0.179657
    18  H    0.173327
    19  H    0.407124
    20  H    0.423824
    21  H    0.423476
 Sum of Mulliken atomic charges =   0.00000

 Dipole moment (field-independent basis, Debye):
    X=             -1.7662    Y=             -3.6142    Z=             -1.2561  Tot=              4.2142
 Quadrupole moment (field-independent basis, Debye-Ang):
   XX=            -68.0136   YY=            -65.1306   ZZ=            -64.9466
   XY=             -8.8407   XZ=              0.3918   YZ=             -0.5646

 Normal termination of Gaussian 09 at Mon Apr 15 18:46:43 2019.
