 Gaussian 09, Revision C.01,
 Gaussian 09:  EM64L-G09RevC.01 23-Sep-2011

 ------------------------------------------------
 # mpw1pw91/6-31+g** nmr scrf=(pcm,solvent=water)
 ------------------------------------------------

 99/9=1/99;
 -------
 comment
 -------
 Charge =  0 Multiplicity = 1

                         Standard orientation:
 ---------------------------------------------------------------------
 Center     Atomic      Atomic             Coordinates (Angstroms)
 Number     Number       Type             X           Y           Z
 ---------------------------------------------------------------------
      1          6           0       -2.287238   -0.051664   -0.245628
      2          6           0       -1.184612    0.760527    0.432688
      3          6           0       -0.466562   -1.347152    0.333598
      4          6           0        1.123264    0.394819   -0.551017
      5          6           0        0.761859   -1.107147   -0.585941
      6          6           0       -0.117087    1.314220   -0.559125
      7          8           0       -0.593476   -0.273797    1.267800
      8          8           0       -1.667082   -1.336291   -0.433587
      9          8           0        0.269445    2.644098   -0.246415
     10          8           0        1.894010    0.663580    0.638948
     11          8           0        1.881365   -1.885497   -0.195135
     12          1           0       -2.595680    0.347050   -1.215691
     13          1           0       -3.164121   -0.152490    0.403899
     14          1           0       -1.548759    1.554574    1.085004
     15          1           0       -0.373495   -2.285293    0.886350
     16          1           0        1.785953    0.650283   -1.380514
     17          1           0        0.485469   -1.411709   -1.600303
     18          1           0       -0.541684    1.344764   -1.568445
     19          1           0        1.003683    2.558277    0.390165
     20          1           0        1.303391    0.436756    1.385299
     21          1           0        2.393397   -1.320586    0.413898
 ---------------------------------------------------------------------

 SCF Done:  E(RmPW1PW91) =  -610.646769544     A.U. after   12 cycles

      1  C    Isotropic =   126.9183   Anisotropy =    47.6969

      2  C    Isotropic =   113.2649   Anisotropy =    39.1308

      3  C    Isotropic =    88.8501   Anisotropy =    24.1386

      4  C    Isotropic =   124.1450   Anisotropy =    44.0482

      5  C    Isotropic =   122.5760   Anisotropy =    42.2695

      6  C    Isotropic =   122.9823   Anisotropy =    39.8711

      7  O    Isotropic =   238.5084   Anisotropy =    60.3133

      8  O    Isotropic =   260.5333   Anisotropy =   121.7184

      9  O    Isotropic =   294.6090   Anisotropy =    43.9583

     10  O    Isotropic =   314.0495   Anisotropy =   106.3617

     11  O    Isotropic =   303.7271   Anisotropy =    36.9620

     12  H    Isotropic =    27.7066   Anisotropy =     7.9289

     13  H    Isotropic =    27.8156   Anisotropy =    10.8396

     14  H    Isotropic =    27.0856   Anisotropy =     6.3089

     15  H    Isotropic =    26.2149   Anisotropy =     6.2116

     16  H    Isotropic =    27.6478   Anisotropy =     9.0421

     17  H    Isotropic =    28.1107   Anisotropy =     5.5825

     18  H    Isotropic =    27.9505   Anisotropy =     5.7173

     19  H    Isotropic =    27.9702   Anisotropy =    14.8383

     20  H    Isotropic =    28.9090   Anisotropy =    16.9972

     21  H    Isotropic =    28.0673   Anisotropy =    15.8441

 The electronic state is 1-A.
 Alpha  occ. eigenvalues --  -19.28722 -19.27780 -19.27225 -19.26256 -19.26250
 Alpha  occ. eigenvalues --  -10.36137 -10.32292 -10.32125 -10.32020 -10.31528
 Alpha  occ. eigenvalues --  -10.30933  -1.14760  -1.09634  -1.07119  -1.05344
 Alpha  occ. eigenvalues --   -1.04373  -0.82381  -0.81205  -0.70201  -0.69278
 Alpha  occ. eigenvalues --   -0.65138  -0.61825  -0.58266  -0.55304  -0.54638
 Alpha  occ. eigenvalues --   -0.52923  -0.50616  -0.50317  -0.46918  -0.46339
 Alpha  occ. eigenvalues --   -0.44508  -0.43060  -0.42699  -0.42580  -0.38645
 Alpha  occ. eigenvalues --   -0.37378  -0.36584  -0.36228  -0.35066  -0.33411
 Alpha  occ. eigenvalues --   -0.32134  -0.28890  -0.27732
 Alpha virt. eigenvalues --    0.00315   0.01717   0.02320   0.02742   0.03992
 Alpha virt. eigenvalues --    0.04411   0.04920   0.05136   0.05443   0.08043
 Alpha virt. eigenvalues --    0.08397   0.08883   0.10197   0.10439   0.11077

 Mulliken atomic charges:
              1
     1  C   -0.279365
     2  C    0.358949
     3  C    0.037060
     4  C    0.098037
     5  C   -0.071813
     6  C   -0.190097
     7  O   -0.421041
     8  O   -0.384258
     9  O   -0.533531
    10  O   -0.642663
    11  O   -0.524459
    12  H    0.181655
    13  H    0.180308
    14  H    0.204156
    15  H    0.192347
    16  H    0.197143
    17  H    0.197476
    18  H    0.187933
    19  H    0.388628
    20  H    0.434412
    21  H    0.389122
 Sum of Mulliken atomic charges =   0.00000

 Dipole moment (field-independent basis, Debye):
    X=             -1.7490    Y=              1.3340    Z=              0.3956  Tot=              2.2350
 Quadrupole moment (field-independent basis, Debye-Ang):
   XX=            -65.0237   YY=            -77.7365   ZZ=            -61.8013
   XY=             -0.8920   XZ=              1.5653   YZ=             -0.2184

 Normal termination of Gaussian 09 at Fri Apr 12 11:36:08 2019.
