 Gaussian 09, Revision C.01,
 Gaussian 09:  EM64L-G09RevC.01 23-Sep-2011

 ------------------------------------------------
 # mpw1pw91/6-31+g** nmr scrf=(pcm,solvent=water)
 ------------------------------------------------

 99/9=1/99;
 -------
 comment
 -------
 Charge =  0 Multiplicity = 1

                         Standard orientation:
 ---------------------------------------------------------------------
 Center     Atomic      Atomic             Coordinates (Angstroms)
 Number     Number       Type             X           Y           Z
 ---------------------------------------------------------------------
      1          6           0       -2.291256    0.143790   -0.271439
      2          6           0       -1.138726    0.846640    0.449650
      3          6           0       -0.598538   -1.293663    0.336959
      4          6           0        1.139627    0.314474   -0.608446
      5          6           0        0.657369   -1.157910   -0.557182
      6          6           0       -0.023042    1.339223   -0.514476
      7          8           0       -0.661180   -0.240734    1.274148
      8          8           0       -1.768909   -1.181036   -0.476808
      9          8           0        0.497742    2.599654   -0.116943
     10          8           0        2.013059    0.593035    0.485786
     11          8           0        1.763563   -1.898040   -0.039445
     12          1           0       -2.547020    0.584497   -1.238775
     13          1           0       -3.187738    0.099308    0.357951
     14          1           0       -1.453492    1.658877    1.106187
     15          1           0       -0.611995   -2.245901    0.877877
     16          1           0        1.687767    0.482612   -1.544442
     17          1           0        0.398727   -1.502192   -1.565616
     18          1           0       -0.453648    1.490891   -1.509888
     19          1           0        1.155247    2.389183    0.572626
     20          1           0        2.287795   -0.271167    0.843345
     21          1           0        1.497553   -2.824464    0.076451
 ---------------------------------------------------------------------

 SCF Done:  E(RmPW1PW91) =  -610.642414960     A.U. after   12 cycles

      1  C    Isotropic =   127.2054   Anisotropy =    46.0628

      2  C    Isotropic =   113.8285   Anisotropy =    36.9836

      3  C    Isotropic =    91.3267   Anisotropy =    29.2995

      4  C    Isotropic =   129.5955   Anisotropy =    46.5880

      5  C    Isotropic =   123.3991   Anisotropy =    42.1939

      6  C    Isotropic =   123.8210   Anisotropy =    41.5543

      7  O    Isotropic =   247.6048   Anisotropy =    60.8892

      8  O    Isotropic =   260.1838   Anisotropy =   123.2909

      9  O    Isotropic =   296.7054   Anisotropy =    40.7080

     10  O    Isotropic =   321.8299   Anisotropy =    51.2579

     11  O    Isotropic =   296.8174   Anisotropy =    54.6668

     12  H    Isotropic =    27.7970   Anisotropy =     7.7745

     13  H    Isotropic =    27.9106   Anisotropy =    10.9340

     14  H    Isotropic =    27.1207   Anisotropy =     6.3396

     15  H    Isotropic =    26.4514   Anisotropy =     6.4560

     16  H    Isotropic =    27.3105   Anisotropy =     9.5749

     17  H    Isotropic =    27.8767   Anisotropy =     5.6711

     18  H    Isotropic =    28.0901   Anisotropy =     5.7755

     19  H    Isotropic =    27.6822   Anisotropy =    14.8934

     20  H    Isotropic =    27.9169   Anisotropy =    18.6091

     21  H    Isotropic =    29.4565   Anisotropy =    19.3387

 The electronic state is 1-A.
 Alpha  occ. eigenvalues --  -19.27846 -19.27669 -19.26984 -19.25986 -19.25709
 Alpha  occ. eigenvalues --  -10.36105 -10.32008 -10.31813 -10.31501 -10.31462
 Alpha  occ. eigenvalues --  -10.30593  -1.14414  -1.09393  -1.07371  -1.04676
 Alpha  occ. eigenvalues --   -1.04046  -0.81992  -0.80970  -0.70214  -0.68611
 Alpha  occ. eigenvalues --   -0.65187  -0.61249  -0.57414  -0.55981  -0.55138
 Alpha  occ. eigenvalues --   -0.51900  -0.50280  -0.49398  -0.47917  -0.46754
 Alpha  occ. eigenvalues --   -0.43958  -0.43118  -0.42308  -0.40223  -0.38618
 Alpha  occ. eigenvalues --   -0.37778  -0.36708  -0.36130  -0.33865  -0.32431
 Alpha  occ. eigenvalues --   -0.31953  -0.28692  -0.27026
 Alpha virt. eigenvalues --    0.00342   0.01621   0.02160   0.02443   0.04006
 Alpha virt. eigenvalues --    0.04475   0.04981   0.05272   0.05722   0.08368
 Alpha virt. eigenvalues --    0.08450   0.08933   0.09918   0.10600   0.11388

 Mulliken atomic charges:
              1
     1  C   -0.284574
     2  C    0.349975
     3  C   -0.074668
     4  C    0.043294
     5  C    0.063809
     6  C   -0.088536
     7  O   -0.343888
     8  O   -0.383837
     9  O   -0.549361
    10  O   -0.616537
    11  O   -0.590845
    12  H    0.178146
    13  H    0.176602
    14  H    0.194563
    15  H    0.179705
    16  H    0.174194
    17  H    0.194583
    18  H    0.178584
    19  H    0.390323
    20  H    0.409424
    21  H    0.399045
 Sum of Mulliken atomic charges =   0.00000

 Dipole moment (field-independent basis, Debye):
    X=             -1.5800    Y=             -3.3209    Z=             -1.0434  Tot=              3.8228
 Quadrupole moment (field-independent basis, Debye-Ang):
   XX=            -66.8974   YY=            -64.3625   ZZ=            -64.3955
   XY=             -8.1163   XZ=              0.4277   YZ=             -0.4612

 Normal termination of Gaussian 09 at Fri Apr 12 11:35:51 2019.
