 Gaussian 09, Revision C.01,
 Gaussian 09:  EM64L-G09RevC.01 23-Sep-2011

 ------------------------------------------------
 # mpw1pw91/6-31+g** nmr scrf=(pcm,solvent=water)
 ------------------------------------------------

 99/9=1/99;
 -------
 comment
 -------
 Charge =  0 Multiplicity = 1

                         Standard orientation:
 ---------------------------------------------------------------------
 Center     Atomic      Atomic             Coordinates (Angstroms)
 Number     Number       Type             X           Y           Z
 ---------------------------------------------------------------------
      1          6           0       -2.282615    0.338333   -0.257928
      2          6           0       -1.066530    0.930675    0.456768
      3          6           0       -0.720093   -1.252328    0.330518
      4          6           0        1.150013    0.195921   -0.598914
      5          6           0        0.551024   -1.236963   -0.551242
      6          6           0        0.083878    1.319372   -0.516011
      7          8           0       -0.683485   -0.197295    1.273503
      8          8           0       -1.877159   -1.021929   -0.482077
      9          8           0        0.705745    2.539315   -0.143787
     10          8           0        2.024049    0.348039    0.543115
     11          8           0        1.525022   -2.152515   -0.079742
     12          1           0       -2.510676    0.810364   -1.217621
     13          1           0       -3.172533    0.366884    0.382370
     14          1           0       -1.299405    1.767619    1.116553
     15          1           0       -0.814304   -2.202833    0.863107
     16          1           0        1.736167    0.322820   -1.512495
     17          1           0        0.266091   -1.556904   -1.558076
     18          1           0       -0.332981    1.483842   -1.515270
     19          1           0        1.345394    2.287106    0.548736
     20          1           0        2.925318    0.487798    0.214123
     21          1           0        2.009480   -1.661661    0.611332
 ---------------------------------------------------------------------

 SCF Done:  E(RmPW1PW91) =  -610.644513791     A.U. after   12 cycles

      1  C    Isotropic =   127.0958   Anisotropy =    45.1248

      2  C    Isotropic =   114.2136   Anisotropy =    36.5514

      3  C    Isotropic =    89.7079   Anisotropy =    28.1372

      4  C    Isotropic =   126.0743   Anisotropy =    47.7517

      5  C    Isotropic =   124.2574   Anisotropy =    43.5588

      6  C    Isotropic =   124.1776   Anisotropy =    41.6377

      7  O    Isotropic =   245.5797   Anisotropy =    60.6521

      8  O    Isotropic =   260.2263   Anisotropy =   122.2425

      9  O    Isotropic =   291.8284   Anisotropy =    39.0236

     10  O    Isotropic =   315.8769   Anisotropy =    45.2162

     11  O    Isotropic =   300.6302   Anisotropy =    27.5707

     12  H    Isotropic =    27.7815   Anisotropy =     7.7989

     13  H    Isotropic =    27.9286   Anisotropy =    11.0015

     14  H    Isotropic =    27.2071   Anisotropy =     6.3498

     15  H    Isotropic =    26.2762   Anisotropy =     6.3678

     16  H    Isotropic =    27.4262   Anisotropy =     9.0355

     17  H    Isotropic =    28.1494   Anisotropy =     5.7466

     18  H    Isotropic =    28.0152   Anisotropy =     5.7340

     19  H    Isotropic =    27.8584   Anisotropy =    14.6811

     20  H    Isotropic =    29.3707   Anisotropy =    23.3619

     21  H    Isotropic =    27.9699   Anisotropy =    15.7351

 The electronic state is 1-A.
 Alpha  occ. eigenvalues --  -19.28115 -19.27486 -19.26745 -19.25960 -19.25943
 Alpha  occ. eigenvalues --  -10.35446 -10.32357 -10.31644 -10.31471 -10.31143
 Alpha  occ. eigenvalues --  -10.30494  -1.14103  -1.09567  -1.06853  -1.05165
 Alpha  occ. eigenvalues --   -1.03820  -0.81854  -0.80959  -0.69727  -0.68665
 Alpha  occ. eigenvalues --   -0.64840  -0.60592  -0.57811  -0.56505  -0.54187
 Alpha  occ. eigenvalues --   -0.52830  -0.50551  -0.48367  -0.47832  -0.46350
 Alpha  occ. eigenvalues --   -0.44409  -0.42628  -0.42337  -0.39866  -0.37943
 Alpha  occ. eigenvalues --   -0.37819  -0.36519  -0.35829  -0.34547  -0.33286
 Alpha  occ. eigenvalues --   -0.31817  -0.28435  -0.27181
 Alpha virt. eigenvalues --   -0.00164   0.01612   0.02411   0.02819   0.04268
 Alpha virt. eigenvalues --    0.04481   0.04737   0.05036   0.05792   0.07938
 Alpha virt. eigenvalues --    0.08427   0.08937   0.10366   0.10739   0.11437

 Mulliken atomic charges:
              1
     1  C   -0.286275
     2  C    0.355279
     3  C    0.022373
     4  C    0.045724
     5  C    0.003336
     6  C   -0.106036
     7  O   -0.362928
     8  O   -0.393632
     9  O   -0.548942
    10  O   -0.701174
    11  O   -0.535475
    12  H    0.177005
    13  H    0.174968
    14  H    0.193777
    15  H    0.182802
    16  H    0.194359
    17  H    0.191523
    18  H    0.182951
    19  H    0.387551
    20  H    0.432724
    21  H    0.390091
 Sum of Mulliken atomic charges =   0.00000

 Dipole moment (field-independent basis, Debye):
    X=              1.4552    Y=              2.1030    Z=             -1.3215  Tot=              2.8786
 Quadrupole moment (field-independent basis, Debye-Ang):
   XX=            -54.4280   YY=            -77.3073   ZZ=            -64.9161
   XY=             -0.7382   XZ=             -0.1278   YZ=             -0.6856

 Normal termination of Gaussian 09 at Fri Apr 12 11:32:51 2019.
