 Gaussian 09, Revision C.01,
 Gaussian 09:  EM64L-G09RevC.01 23-Sep-2011

 -----------------------------------------------------------
 # B3LYP/6-31+G** test scrf=(pcm,solvent=water,smd,dovacuum)
 -----------------------------------------------------------

 99/5=1,9=1/99;
 -------
 comment
 -------
 Charge =  0 Multiplicity = 1

                         Standard orientation:
 ---------------------------------------------------------------------
 Center     Atomic      Atomic             Coordinates (Angstroms)
 Number     Number       Type             X           Y           Z
 ---------------------------------------------------------------------
      1          6           0        2.057223    0.665315    0.668772
      2          6           0        1.039197    1.084553   -0.400442
      3          6           0        1.008285   -1.135264   -0.313963
      4          6           0       -0.845311    0.030086    0.941922
      5          6           0       -0.430148   -1.266788    0.211599
      6          6           0       -0.370122    1.289448    0.166186
      7          8           0        1.044540   -0.077694   -1.254233
      8          8           0        1.890443   -0.766327    0.742855
      9          8           0       -1.241166    1.532603   -0.935771
     10          8           0       -2.263765    0.068505    1.083961
     11          8           0       -1.329935   -1.522000   -0.870218
     12          1           0        1.870124    1.107664    1.651721
     13          1           0        3.081289    0.895582    0.357686
     14          1           0        1.349959    1.941661   -0.999859
     15          1           0        1.358578   -2.050152   -0.798096
     16          1           0       -0.407494    0.036805    1.944613
     17          1           0       -0.515090   -2.123982    0.885450
     18          1           0       -0.362995    2.156048    0.844812
     19          1           0       -2.137368    1.479275   -0.555339
     20          1           0       -2.597771   -0.538864    0.393910
     21          1           0       -1.194921   -0.788822   -1.502083
 ---------------------------------------------------------------------

 SCF Done:  E(RB3LYP) =  -610.810110889     A.U. after   12 cycles

 The electronic state is 1-A.
 Alpha  occ. eigenvalues --  -19.18616 -19.17861 -19.17680 -19.17085 -19.16844
 Alpha  occ. eigenvalues --  -10.29614 -10.25278 -10.24796 -10.24638 -10.24590
 Alpha  occ. eigenvalues --  -10.24243  -1.11533  -1.06152  -1.03704  -1.02344
 Alpha  occ. eigenvalues --   -1.01147  -0.79725  -0.77942  -0.67799  -0.65725
 Alpha  occ. eigenvalues --   -0.63036  -0.58490  -0.56122  -0.53108  -0.51240
 Alpha  occ. eigenvalues --   -0.50368  -0.49563  -0.47497  -0.45865  -0.44616
 Alpha  occ. eigenvalues --   -0.42836  -0.41147  -0.40470  -0.39507  -0.37913
 Alpha  occ. eigenvalues --   -0.36112  -0.35415  -0.34693  -0.32441  -0.31074
 Alpha  occ. eigenvalues --   -0.29135  -0.27667  -0.26763
 Alpha virt. eigenvalues --    0.00416   0.01417   0.02802   0.02909   0.04237
 Alpha virt. eigenvalues --    0.04796   0.05278   0.05477   0.06273   0.08318
 Alpha virt. eigenvalues --    0.08680   0.09593   0.10277   0.10419   0.11844

 Mulliken atomic charges:
              1
     1  C   -0.182481
     2  C    0.297449
     3  C    0.004290
     4  C    0.055040
     5  C    0.100279
     6  C    0.025578
     7  O   -0.439076
     8  O   -0.452851
     9  O   -0.646791
    10  O   -0.650554
    11  O   -0.591198
    12  H    0.179012
    13  H    0.169751
    14  H    0.177554
    15  H    0.174228
    16  H    0.184520
    17  H    0.179724
    18  H    0.165674
    19  H    0.416289
    20  H    0.417430
    21  H    0.416133
 Sum of Mulliken atomic charges =   0.00000

 Dipole moment (field-independent basis, Debye):
    X=              1.3591    Y=              1.9665    Z=              1.7231  Tot=              2.9467
 Quadrupole moment (field-independent basis, Debye-Ang):
   XX=            -66.6716   YY=            -63.8170   ZZ=            -70.7551
   XY=              3.8559   XZ=              2.7052   YZ=              2.5692

 Normal termination of Gaussian 09 at Mon Apr 15 18:23:23 2019.
