 Gaussian 09, Revision C.01,
 Gaussian 09:  EM64L-G09RevC.01 23-Sep-2011

 -----------------------------------------------------------
 # B3LYP/6-31+G** test scrf=(pcm,solvent=water,smd,dovacuum)
 -----------------------------------------------------------

 99/5=1,9=1/99;
 -------
 comment
 -------
 Charge =  0 Multiplicity = 1

                         Standard orientation:
 ---------------------------------------------------------------------
 Center     Atomic      Atomic             Coordinates (Angstroms)
 Number     Number       Type             X           Y           Z
 ---------------------------------------------------------------------
      1          6           0       -2.093104   -0.589909    0.661741
      2          6           0       -1.091287   -1.060030   -0.403024
      3          6           0       -0.962132    1.152959   -0.335958
      4          6           0        0.867045   -0.084610    0.898420
      5          6           0        0.459941    1.256068    0.236997
      6          6           0        0.302415   -1.339198    0.168364
      7          8           0       -1.039454    0.093481   -1.260973
      8          8           0       -1.868739    0.832927    0.723363
      9          8           0        1.150093   -1.722553   -0.900916
     10          8           0        2.287468   -0.175957    0.964460
     11          8           0        1.404287    1.530060   -0.804619
     12          1           0       -1.925166   -1.031186    1.648910
     13          1           0       -3.125817   -0.782265    0.352142
     14          1           0       -1.442598   -1.905499   -0.997358
     15          1           0       -1.275384    2.076767   -0.830369
     16          1           0        0.482523   -0.084308    1.922987
     17          1           0        0.490397    2.050203    0.991670
     18          1           0        0.222574   -2.158741    0.901857
     19          1           0        2.050804   -1.573680   -0.557023
     20          1           0        2.599413    0.446393    0.275166
     21          1           0        1.556747    2.486971   -0.837735
 ---------------------------------------------------------------------

 SCF Done:  E(RB3LYP) =  -610.808818658     A.U. after   12 cycles

 The electronic state is 1-A.
 Alpha  occ. eigenvalues --  -19.18348 -19.17811 -19.17661 -19.17048 -19.16449
 Alpha  occ. eigenvalues --  -10.29393 -10.25047 -10.24933 -10.24724 -10.24368
 Alpha  occ. eigenvalues --  -10.24092  -1.11306  -1.06069  -1.03842  -1.02064
 Alpha  occ. eigenvalues --   -1.01052  -0.79534  -0.78023  -0.67593  -0.65549
 Alpha  occ. eigenvalues --   -0.62855  -0.58636  -0.55266  -0.53324  -0.50936
 Alpha  occ. eigenvalues --   -0.50446  -0.49510  -0.48495  -0.45394  -0.44500
 Alpha  occ. eigenvalues --   -0.43233  -0.41539  -0.40144  -0.37989  -0.37648
 Alpha  occ. eigenvalues --   -0.35778  -0.35302  -0.34866  -0.32369  -0.30843
 Alpha  occ. eigenvalues --   -0.28822  -0.27706  -0.26588
 Alpha virt. eigenvalues --    0.00178   0.01407   0.02519   0.02950   0.03876
 Alpha virt. eigenvalues --    0.04949   0.05322   0.05441   0.06484   0.08141
 Alpha virt. eigenvalues --    0.08816   0.09638   0.10242   0.10342   0.11999

 Mulliken atomic charges:
              1
     1  C   -0.165922
     2  C    0.277478
     3  C    0.013422
     4  C    0.048514
     5  C    0.129867
     6  C    0.043351
     7  O   -0.420516
     8  O   -0.448967
     9  O   -0.630181
    10  O   -0.660953
    11  O   -0.666595
    12  H    0.176486
    13  H    0.167558
    14  H    0.175563
    15  H    0.169764
    16  H    0.184841
    17  H    0.181549
    18  H    0.158686
    19  H    0.409266
    20  H    0.420375
    21  H    0.436415
 Sum of Mulliken atomic charges =   0.00000

 Dipole moment (field-independent basis, Debye):
    X=             -0.7098    Y=              2.3348    Z=              2.8767  Tot=              3.7723
 Quadrupole moment (field-independent basis, Debye-Ang):
   XX=            -65.3863   YY=            -53.8892   ZZ=            -73.2178
   XY=             11.0149   XZ=             -1.9754   YZ=             -5.6051

 Normal termination of Gaussian 09 at Mon Apr 15 18:18:22 2019.
