 Gaussian 09, Revision C.01,
 Gaussian 09:  EM64L-G09RevC.01 23-Sep-2011

 ------------------------------------------------
 # mpw1pw91/6-31+g** nmr scrf=(pcm,solvent=water)
 ------------------------------------------------

 99/9=1/99;
 -------
 comment
 -------
 Charge =  0 Multiplicity = 1

                         Standard orientation:
 ---------------------------------------------------------------------
 Center     Atomic      Atomic             Coordinates (Angstroms)
 Number     Number       Type             X           Y           Z
 ---------------------------------------------------------------------
      1          6           0       -2.093104   -0.589909    0.661741
      2          6           0       -1.091287   -1.060030   -0.403024
      3          6           0       -0.962132    1.152959   -0.335958
      4          6           0        0.867045   -0.084610    0.898420
      5          6           0        0.459941    1.256068    0.236997
      6          6           0        0.302415   -1.339198    0.168364
      7          8           0       -1.039454    0.093481   -1.260973
      8          8           0       -1.868739    0.832927    0.723363
      9          8           0        1.150093   -1.722553   -0.900916
     10          8           0        2.287468   -0.175957    0.964460
     11          8           0        1.404287    1.530060   -0.804619
     12          1           0       -1.925166   -1.031186    1.648910
     13          1           0       -3.125817   -0.782265    0.352142
     14          1           0       -1.442598   -1.905499   -0.997358
     15          1           0       -1.275384    2.076767   -0.830369
     16          1           0        0.482523   -0.084308    1.922987
     17          1           0        0.490397    2.050203    0.991670
     18          1           0        0.222574   -2.158741    0.901857
     19          1           0        2.050804   -1.573680   -0.557023
     20          1           0        2.599413    0.446393    0.275166
     21          1           0        1.556747    2.486971   -0.837735
 ---------------------------------------------------------------------

 SCF Done:  E(RmPW1PW91) =  -610.650513652     A.U. after   12 cycles

      1  C    Isotropic =   130.4170   Anisotropy =    61.6629

      2  C    Isotropic =   119.1805   Anisotropy =    51.4615

      3  C    Isotropic =    93.3402   Anisotropy =    32.8326

      4  C    Isotropic =   131.9436   Anisotropy =    50.0310

      5  C    Isotropic =   126.0532   Anisotropy =    44.7202

      6  C    Isotropic =   125.4580   Anisotropy =    42.9296

      7  O    Isotropic =   258.7462   Anisotropy =    69.0697

      8  O    Isotropic =   266.8993   Anisotropy =   121.2101

      9  O    Isotropic =   305.3856   Anisotropy =    29.2021

     10  O    Isotropic =   311.1719   Anisotropy =    44.0759

     11  O    Isotropic =   308.0412   Anisotropy =    49.3110

     12  H    Isotropic =    27.7563   Anisotropy =     7.4642

     13  H    Isotropic =    27.7308   Anisotropy =    11.4956

     14  H    Isotropic =    26.8964   Anisotropy =     8.3530

     15  H    Isotropic =    26.0369   Anisotropy =     7.7821

     16  H    Isotropic =    27.6899   Anisotropy =     5.9330

     17  H    Isotropic =    27.7660   Anisotropy =     6.8937

     18  H    Isotropic =    27.8628   Anisotropy =     7.9203

     19  H    Isotropic =    28.5022   Anisotropy =    16.9142

     20  H    Isotropic =    27.6938   Anisotropy =    18.0011

     21  H    Isotropic =    29.4171   Anisotropy =    22.9689

 The electronic state is 1-A.
 Alpha  occ. eigenvalues --  -19.27673 -19.27597 -19.27067 -19.26562 -19.25523
 Alpha  occ. eigenvalues --  -10.35939 -10.31853 -10.31770 -10.31615 -10.31078
 Alpha  occ. eigenvalues --  -10.30864  -1.14424  -1.09434  -1.07058  -1.05136
 Alpha  occ. eigenvalues --   -1.03906  -0.82481  -0.81035  -0.70328  -0.68167
 Alpha  occ. eigenvalues --   -0.65288  -0.60932  -0.57468  -0.55664  -0.52979
 Alpha  occ. eigenvalues --   -0.52486  -0.51609  -0.50530  -0.47341  -0.46578
 Alpha  occ. eigenvalues --   -0.45138  -0.43329  -0.41844  -0.39654  -0.39139
 Alpha  occ. eigenvalues --   -0.37331  -0.36752  -0.36454  -0.34206  -0.32309
 Alpha  occ. eigenvalues --   -0.30191  -0.29100  -0.28014
 Alpha virt. eigenvalues --    0.00089   0.01324   0.02281   0.02732   0.03799
 Alpha virt. eigenvalues --    0.04791   0.05092   0.05247   0.06351   0.07996
 Alpha virt. eigenvalues --    0.08699   0.09507   0.09990   0.10216   0.11740

 Mulliken atomic charges:
              1
     1  C   -0.214466
     2  C    0.263769
     3  C   -0.115231
     4  C   -0.009159
     5  C    0.104937
     6  C   -0.033201
     7  O   -0.333401
     8  O   -0.374974
     9  O   -0.560362
    10  O   -0.608914
    11  O   -0.615384
    12  H    0.182088
    13  H    0.179624
    14  H    0.190293
    15  H    0.183581
    16  H    0.192047
    17  H    0.193618
    18  H    0.168195
    19  H    0.386569
    20  H    0.405861
    21  H    0.414509
 Sum of Mulliken atomic charges =   0.00000

 Dipole moment (field-independent basis, Debye):
    X=             -0.6682    Y=              2.2095    Z=              2.4439  Tot=              3.3617
 Quadrupole moment (field-independent basis, Debye-Ang):
   XX=            -64.5868   YY=            -54.2527   ZZ=            -71.9768
   XY=             10.1745   XZ=             -1.8682   YZ=             -5.1648

 Normal termination of Gaussian 09 at Fri Apr 12 11:32:56 2019.
