 Gaussian 09, Revision C.01,
 Gaussian 09:  EM64L-G09RevC.01 23-Sep-2011

 -----------------------------------------------------------
 # B3LYP/6-31+G** test scrf=(pcm,solvent=water,smd,dovacuum)
 -----------------------------------------------------------

 99/5=1,9=1/99;
 -------
 comment
 -------
 Charge =  0 Multiplicity = 1

                         Standard orientation:
 ---------------------------------------------------------------------
 Center     Atomic      Atomic             Coordinates (Angstroms)
 Number     Number       Type             X           Y           Z
 ---------------------------------------------------------------------
      1          6           0       -2.037599   -0.688757    0.673142
      2          6           0       -1.046925   -1.077501   -0.433198
      3          6           0       -0.990150    1.135029   -0.268560
      4          6           0        0.839212   -0.093215    0.942497
      5          6           0        0.457884    1.240140    0.260528
      6          6           0        0.394105   -1.285708    0.063145
      7          8           0       -1.064308    0.114805   -1.245411
      8          8           0       -1.867097    0.740733    0.786835
      9          8           0        1.285618   -1.427656   -1.044257
     10          8           0        2.222749   -0.173573    1.230064
     11          8           0        1.370070    1.434096   -0.823307
     12          1           0       -1.828548   -1.162145    1.637467
     13          1           0       -3.069585   -0.907101    0.379827
     14          1           0       -1.375667   -1.912551   -1.053812
     15          1           0       -1.344138    2.069533   -0.714115
     16          1           0        0.320783   -0.135374    1.903915
     17          1           0        0.533073    2.064391    0.982194
     18          1           0        0.469444   -2.215664    0.635773
     19          1           0        1.200597   -0.599793   -1.556082
     20          1           0        2.644500   -0.374157    0.375165
     21          1           0        1.174132    2.285695   -1.247047
 ---------------------------------------------------------------------

 SCF Done:  E(RB3LYP) =  -610.809621051     A.U. after   12 cycles

 The electronic state is 1-A.
 Alpha  occ. eigenvalues --  -19.18486 -19.17761 -19.17342 -19.16956 -19.16860
 Alpha  occ. eigenvalues --  -10.29505 -10.25145 -10.24678 -10.24599 -10.24546
 Alpha  occ. eigenvalues --  -10.24210  -1.11398  -1.05751  -1.03427  -1.02605
 Alpha  occ. eigenvalues --   -1.01052  -0.79448  -0.78080  -0.67792  -0.65302
 Alpha  occ. eigenvalues --   -0.63036  -0.58883  -0.56137  -0.53480  -0.52089
 Alpha  occ. eigenvalues --   -0.50121  -0.48017  -0.46320  -0.46050  -0.44676
 Alpha  occ. eigenvalues --   -0.43198  -0.41949  -0.39821  -0.39365  -0.37422
 Alpha  occ. eigenvalues --   -0.36812  -0.35045  -0.34228  -0.31953  -0.31581
 Alpha  occ. eigenvalues --   -0.28887  -0.27405  -0.26662
 Alpha virt. eigenvalues --    0.00419   0.01605   0.02594   0.02840   0.03825
 Alpha virt. eigenvalues --    0.04882   0.05305   0.05602   0.06078   0.08186
 Alpha virt. eigenvalues --    0.08737   0.09650   0.10254   0.10482   0.11544

 Mulliken atomic charges:
              1
     1  C   -0.185405
     2  C    0.338708
     3  C   -0.063882
     4  C   -0.064852
     5  C    0.300155
     6  C   -0.024437
     7  O   -0.439715
     8  O   -0.451160
     9  O   -0.617410
    10  O   -0.590392
    11  O   -0.672693
    12  H    0.179059
    13  H    0.169532
    14  H    0.177376
    15  H    0.173130
    16  H    0.188885
    17  H    0.166196
    18  H    0.172528
    19  H    0.413058
    20  H    0.403786
    21  H    0.427531
 Sum of Mulliken atomic charges =   0.00000

 Dipole moment (field-independent basis, Debye):
    X=             -3.2475    Y=              1.1471    Z=             -0.2890  Tot=              3.4562
 Quadrupole moment (field-independent basis, Debye-Ang):
   XX=            -73.7356   YY=            -55.8249   ZZ=            -69.4484
   XY=              8.0323   XZ=             -4.1659   YZ=             -7.2970

 Normal termination of Gaussian 09 at Mon Apr 15 18:21:41 2019.
