 Gaussian 09, Revision C.01,
 Gaussian 09:  EM64L-G09RevC.01 23-Sep-2011

 -----------------------------------------------------------
 # B3LYP/6-31+G** test scrf=(pcm,solvent=water,smd,dovacuum)
 -----------------------------------------------------------

 99/5=1,9=1/99;
 -------
 comment
 -------
 Charge =  0 Multiplicity = 1

                         Standard orientation:
 ---------------------------------------------------------------------
 Center     Atomic      Atomic             Coordinates (Angstroms)
 Number     Number       Type             X           Y           Z
 ---------------------------------------------------------------------
      1          6           0       -2.276652    0.237504   -0.281695
      2          6           0       -1.093911    0.883588    0.445207
      3          6           0       -0.658045   -1.281162    0.343494
      4          6           0        1.157844    0.228978   -0.611949
      5          6           0        0.609133   -1.222511   -0.541751
      6          6           0        0.046064    1.305201   -0.522508
      7          8           0       -0.674378   -0.215520    1.275665
      8          8           0       -1.824952   -1.112383   -0.471110
      9          8           0        0.720231    2.487407   -0.084637
     10          8           0        2.067058    0.372555    0.478617
     11          8           0        1.619661   -2.094396   -0.060216
     12          1           0       -2.502384    0.685816   -1.253269
     13          1           0       -3.177768    0.250186    0.342720
     14          1           0       -1.379538    1.708813    1.101126
     15          1           0       -0.710744   -2.228570    0.886895
     16          1           0        1.707657    0.368862   -1.551884
     17          1           0        0.332751   -1.571686   -1.541056
     18          1           0       -0.370802    1.468031   -1.524911
     19          1           0        0.068390    3.196094    0.036707
     20          1           0        1.974435    1.291755    0.789810
     21          1           0        2.090431   -1.580204    0.622523
 ---------------------------------------------------------------------

 SCF Done:  E(RB3LYP) =  -610.800042096     A.U. after   12 cycles

 The electronic state is 1-A.
 Alpha  occ. eigenvalues --  -19.18239 -19.17709 -19.17423 -19.16720 -19.16709
 Alpha  occ. eigenvalues --  -10.29034 -10.25340 -10.25062 -10.25038 -10.24481
 Alpha  occ. eigenvalues --  -10.23848  -1.11074  -1.06070  -1.04098  -1.01679
 Alpha  occ. eigenvalues --   -1.01072  -0.79087  -0.77861  -0.67553  -0.65947
 Alpha  occ. eigenvalues --   -0.62670  -0.58790  -0.55449  -0.53465  -0.52596
 Alpha  occ. eigenvalues --   -0.50301  -0.48580  -0.46754  -0.45599  -0.44398
 Alpha  occ. eigenvalues --   -0.42830  -0.41135  -0.40947  -0.38590  -0.36620
 Alpha  occ. eigenvalues --   -0.36442  -0.34913  -0.34230  -0.32253  -0.31161
 Alpha  occ. eigenvalues --   -0.30156  -0.27569  -0.25404
 Alpha virt. eigenvalues --    0.00390   0.01659   0.02378   0.02685   0.04382
 Alpha virt. eigenvalues --    0.04487   0.05118   0.05471   0.05886   0.08475
 Alpha virt. eigenvalues --    0.08530   0.09153   0.10131   0.10874   0.11611

 Mulliken atomic charges:
              1
     1  C   -0.226474
     2  C    0.345828
     3  C    0.122190
     4  C    0.136229
     5  C    0.046194
     6  C   -0.040559
     7  O   -0.432858
     8  O   -0.459664
     9  O   -0.667543
    10  O   -0.677219
    11  O   -0.599454
    12  H    0.170659
    13  H    0.164044
    14  H    0.177792
    15  H    0.168595
    16  H    0.157616
    17  H    0.177586
    18  H    0.175588
    19  H    0.424275
    20  H    0.428712
    21  H    0.408463
 Sum of Mulliken atomic charges =   0.00000

 Dipole moment (field-independent basis, Debye):
    X=             -3.9062    Y=              6.3691    Z=             -1.3681  Tot=              7.5958
 Quadrupole moment (field-independent basis, Debye-Ang):
   XX=            -70.1464   YY=            -62.9809   ZZ=            -64.9797
   XY=             -4.9915   XZ=              0.5462   YZ=             -1.2909

 Normal termination of Gaussian 09 at Mon Apr 15 18:42:12 2019.
