 Gaussian 09, Revision C.01,
 Gaussian 09:  EM64L-G09RevC.01 23-Sep-2011

 -----------------------------------------------------------
 # B3LYP/6-31+G** test scrf=(pcm,solvent=water,smd,dovacuum)
 -----------------------------------------------------------

 99/5=1,9=1/99;
 -------
 comment
 -------
 Charge =  0 Multiplicity = 1

                         Standard orientation:
 ---------------------------------------------------------------------
 Center     Atomic      Atomic             Coordinates (Angstroms)
 Number     Number       Type             X           Y           Z
 ---------------------------------------------------------------------
      1          6           0        2.030654    0.617152    0.738378
      2          6           0        1.038222    1.099544   -0.330538
      3          6           0        0.998249   -1.118337   -0.373069
      4          6           0       -0.839147   -0.013670    0.946633
      5          6           0       -0.452449   -1.263185    0.124641
      6          6           0       -0.402072    1.267613    0.197576
      7          8           0        1.067542   -0.008408   -1.250354
      8          8           0        1.870985   -0.817037    0.715943
      9          8           0       -1.317276    1.429936   -0.890679
     10          8           0       -2.223012   -0.013017    1.244611
     11          8           0       -1.340669   -1.429619   -0.979721
     12          1           0        1.815652    0.997429    1.741867
     13          1           0        3.061145    0.871227    0.469838
     14          1           0        1.374202    1.989554   -0.867584
     15          1           0        1.350113   -2.007374   -0.902074
     16          1           0       -0.317805   -0.046156    1.906699
     17          1           0       -0.554588   -2.160547    0.742047
     18          1           0       -0.454216    2.132069    0.874191
     19          1           0       -1.072355    2.228418   -1.386246
     20          1           0       -2.663616   -0.213614    0.399630
     21          1           0       -1.239839   -0.620552   -1.518489
 ---------------------------------------------------------------------

 SCF Done:  E(RB3LYP) =  -610.809832424     A.U. after   12 cycles

 The electronic state is 1-A.
 Alpha  occ. eigenvalues --  -19.18483 -19.17770 -19.17225 -19.17045 -19.16895
 Alpha  occ. eigenvalues --  -10.29448 -10.25223 -10.24815 -10.24555 -10.24462
 Alpha  occ. eigenvalues --  -10.24219  -1.11408  -1.05750  -1.03391  -1.02605
 Alpha  occ. eigenvalues --   -1.01103  -0.79545  -0.77962  -0.67869  -0.65331
 Alpha  occ. eigenvalues --   -0.62963  -0.58885  -0.56228  -0.53534  -0.52356
 Alpha  occ. eigenvalues --   -0.49582  -0.48231  -0.46276  -0.45852  -0.44377
 Alpha  occ. eigenvalues --   -0.43517  -0.41953  -0.39883  -0.39789  -0.37725
 Alpha  occ. eigenvalues --   -0.35757  -0.35347  -0.34772  -0.31877  -0.31123
 Alpha  occ. eigenvalues --   -0.28610  -0.28145  -0.26404
 Alpha virt. eigenvalues --    0.00401   0.01611   0.02579   0.02897   0.03969
 Alpha virt. eigenvalues --    0.04686   0.05308   0.05658   0.06074   0.08179
 Alpha virt. eigenvalues --    0.08886   0.09584   0.10377   0.10528   0.11741

 Mulliken atomic charges:
              1
     1  C   -0.197928
     2  C    0.249505
     3  C    0.003992
     4  C   -0.052865
     5  C    0.195038
     6  C    0.103188
     7  O   -0.437725
     8  O   -0.452508
     9  O   -0.688461
    10  O   -0.589587
    11  O   -0.599421
    12  H    0.178986
    13  H    0.169292
    14  H    0.178792
    15  H    0.171687
    16  H    0.188830
    17  H    0.171930
    18  H    0.166250
    19  H    0.425605
    20  H    0.402631
    21  H    0.412769
 Sum of Mulliken atomic charges =   0.00000

 Dipole moment (field-independent basis, Debye):
    X=              3.3222    Y=              5.0584    Z=             -0.3022  Tot=              6.0593
 Quadrupole moment (field-independent basis, Debye-Ang):
   XX=            -73.8705   YY=            -57.0046   ZZ=            -68.3984
   XY=              2.7470   XZ=              4.5927   YZ=             -2.9120

 Normal termination of Gaussian 09 at Mon Apr 15 18:28:08 2019.
