 Gaussian 09, Revision C.01,
 Gaussian 09:  EM64L-G09RevC.01 23-Sep-2011

 -----------------------------------------------------------
 # B3LYP/6-31+G** test scrf=(pcm,solvent=water,smd,dovacuum)
 -----------------------------------------------------------

 99/5=1,9=1/99;
 -------
 comment
 -------
 Charge =  0 Multiplicity = 1

                         Standard orientation:
 ---------------------------------------------------------------------
 Center     Atomic      Atomic             Coordinates (Angstroms)
 Number     Number       Type             X           Y           Z
 ---------------------------------------------------------------------
      1          6           0       -0.860770    1.580947    0.943130
      2          6           0       -1.498188    0.532964    0.033622
      3          6           0        0.476542    1.015207   -0.870332
      4          6           0        0.407094   -1.156240    0.369187
      5          6           0        1.083554   -0.396985   -0.794507
      6          6           0       -1.130076   -0.913977    0.395371
      7          8           0       -0.884634    0.891089   -1.222896
      8          8           0        0.494358    1.648791    0.435189
      9          8           0       -1.779401   -1.734908   -0.572638
     10          8           0        1.047906   -0.792105    1.599758
     11          8           0        2.491987   -0.380689   -0.640392
     12          1           0       -0.833970    1.313312    2.002115
     13          1           0       -1.349100    2.553255    0.824676
     14          1           0       -2.578419    0.636093   -0.078249
     15          1           0        0.986978    1.658819   -1.591098
     16          1           0        0.581556   -2.231994    0.265438
     17          1           0        0.853401   -0.889347   -1.745320
     18          1           0       -1.492300   -1.134755    1.409684
     19          1           0       -1.699875   -2.657056   -0.279417
     20          1           0        1.050683    0.184927    1.622666
     21          1           0        2.650385   -0.462174    0.318511
 ---------------------------------------------------------------------

 SCF Done:  E(RB3LYP) =  -610.806473451     A.U. after   12 cycles

 The electronic state is 1-A.
 Alpha  occ. eigenvalues --  -19.18529 -19.18223 -19.17210 -19.17128 -19.16964
 Alpha  occ. eigenvalues --  -10.29402 -10.25255 -10.25081 -10.24987 -10.24559
 Alpha  occ. eigenvalues --  -10.24333  -1.11365  -1.05463  -1.04008  -1.02456
 Alpha  occ. eigenvalues --   -1.01140  -0.79644  -0.77842  -0.67883  -0.66385
 Alpha  occ. eigenvalues --   -0.62442  -0.59453  -0.56197  -0.53320  -0.51195
 Alpha  occ. eigenvalues --   -0.49951  -0.48389  -0.47796  -0.45963  -0.44512
 Alpha  occ. eigenvalues --   -0.42887  -0.41823  -0.40727  -0.38605  -0.37961
 Alpha  occ. eigenvalues --   -0.36487  -0.35970  -0.34091  -0.32018  -0.31642
 Alpha  occ. eigenvalues --   -0.29457  -0.27891  -0.26128
 Alpha virt. eigenvalues --    0.00784   0.01415   0.02191   0.03150   0.04208
 Alpha virt. eigenvalues --    0.05076   0.05141   0.05448   0.05816   0.07759
 Alpha virt. eigenvalues --    0.08931   0.09534   0.10133   0.10760   0.11627

 Mulliken atomic charges:
              1
     1  C   -0.129696
     2  C    0.326441
     3  C    0.099765
     4  C    0.064881
     5  C    0.080504
     6  C   -0.166069
     7  O   -0.417928
     8  O   -0.518843
     9  O   -0.621319
    10  O   -0.617342
    11  O   -0.586915
    12  H    0.184993
    13  H    0.172724
    14  H    0.177483
    15  H    0.172143
    16  H    0.169498
    17  H    0.181878
    18  H    0.176048
    19  H    0.415687
    20  H    0.432626
    21  H    0.403442
 Sum of Mulliken atomic charges =   0.00000

 Dipole moment (field-independent basis, Debye):
    X=             -3.0615    Y=             -0.8480    Z=              3.2928  Tot=              4.5754
 Quadrupole moment (field-independent basis, Debye-Ang):
   XX=            -71.7173   YY=            -58.6372   ZZ=            -69.0615
   XY=              0.4785   XZ=             -5.4449   YZ=              1.5345

 Normal termination of Gaussian 09 at Mon Apr 15 18:38:33 2019.
