 Gaussian 09, Revision C.01,
 Gaussian 09:  EM64L-G09RevC.01 23-Sep-2011

 ------------------------------------------------
 # mpw1pw91/6-31+g** nmr scrf=(pcm,solvent=water)
 ------------------------------------------------

 99/9=1/99;
 -------
 comment
 -------
 Charge =  0 Multiplicity = 1

                         Standard orientation:
 ---------------------------------------------------------------------
 Center     Atomic      Atomic             Coordinates (Angstroms)
 Number     Number       Type             X           Y           Z
 ---------------------------------------------------------------------
      1          6           0       -0.860770    1.580947    0.943130
      2          6           0       -1.498188    0.532964    0.033622
      3          6           0        0.476542    1.015207   -0.870332
      4          6           0        0.407094   -1.156240    0.369187
      5          6           0        1.083554   -0.396985   -0.794507
      6          6           0       -1.130076   -0.913977    0.395371
      7          8           0       -0.884634    0.891089   -1.222896
      8          8           0        0.494358    1.648791    0.435189
      9          8           0       -1.779401   -1.734908   -0.572638
     10          8           0        1.047906   -0.792105    1.599758
     11          8           0        2.491987   -0.380689   -0.640392
     12          1           0       -0.833970    1.313312    2.002115
     13          1           0       -1.349100    2.553255    0.824676
     14          1           0       -2.578419    0.636093   -0.078249
     15          1           0        0.986978    1.658819   -1.591098
     16          1           0        0.581556   -2.231994    0.265438
     17          1           0        0.853401   -0.889347   -1.745320
     18          1           0       -1.492300   -1.134755    1.409684
     19          1           0       -1.699875   -2.657056   -0.279417
     20          1           0        1.050683    0.184927    1.622666
     21          1           0        2.650385   -0.462174    0.318511
 ---------------------------------------------------------------------

 SCF Done:  E(RmPW1PW91) =  -610.647938116     A.U. after   12 cycles

      1  C    Isotropic =   129.5360   Anisotropy =    57.6358

      2  C    Isotropic =   117.2523   Anisotropy =    44.0594

      3  C    Isotropic =    89.6348   Anisotropy =    26.7145

      4  C    Isotropic =   119.4501   Anisotropy =    43.6218

      5  C    Isotropic =   127.4709   Anisotropy =    46.6810

      6  C    Isotropic =   121.3445   Anisotropy =    40.6105

      7  O    Isotropic =   237.6473   Anisotropy =    61.0990

      8  O    Isotropic =   269.4344   Anisotropy =    99.0580

      9  O    Isotropic =   289.1002   Anisotropy =    71.9983

     10  O    Isotropic =   301.8240   Anisotropy =    56.6560

     11  O    Isotropic =   309.2331   Anisotropy =    33.4456

     12  H    Isotropic =    27.5326   Anisotropy =     7.2783

     13  H    Isotropic =    27.7143   Anisotropy =    11.5569

     14  H    Isotropic =    26.9817   Anisotropy =     7.8210

     15  H    Isotropic =    26.0582   Anisotropy =     7.3341

     16  H    Isotropic =    27.8587   Anisotropy =     6.6586

     17  H    Isotropic =    27.8176   Anisotropy =     5.1620

     18  H    Isotropic =    27.5009   Anisotropy =     5.2590

     19  H    Isotropic =    29.8122   Anisotropy =    19.2925

     20  H    Isotropic =    28.2278   Anisotropy =    18.4430

     21  H    Isotropic =    28.3363   Anisotropy =    15.7381

 The electronic state is 1-A.
 Alpha  occ. eigenvalues --  -19.28045 -19.28032 -19.26849 -19.26707 -19.26202
 Alpha  occ. eigenvalues --  -10.36065 -10.32218 -10.32044 -10.31959 -10.31386
 Alpha  occ. eigenvalues --  -10.31263  -1.14760  -1.08728  -1.07366  -1.05587
 Alpha  occ. eigenvalues --   -1.04313  -0.82796  -0.80861  -0.70754  -0.69170
 Alpha  occ. eigenvalues --   -0.65014  -0.61955  -0.58517  -0.55609  -0.53401
 Alpha  occ. eigenvalues --   -0.52195  -0.50567  -0.49878  -0.48121  -0.46676
 Alpha  occ. eigenvalues --   -0.44941  -0.43732  -0.42648  -0.40195  -0.39778
 Alpha  occ. eigenvalues --   -0.38237  -0.37654  -0.35652  -0.33686  -0.33312
 Alpha  occ. eigenvalues --   -0.31151  -0.29523  -0.27593
 Alpha virt. eigenvalues --    0.00679   0.01265   0.02035   0.02915   0.03990
 Alpha virt. eigenvalues --    0.04928   0.04965   0.05264   0.05565   0.07623
 Alpha virt. eigenvalues --    0.08787   0.09378   0.09871   0.10556   0.11400

 Mulliken atomic charges:
              1
     1  C   -0.156197
     2  C    0.297574
     3  C    0.004549
     4  C    0.042605
     5  C   -0.000098
     6  C   -0.271966
     7  O   -0.337340
     8  O   -0.464297
     9  O   -0.550407
    10  O   -0.564118
    11  O   -0.515786
    12  H    0.189808
    13  H    0.187750
    14  H    0.194694
    15  H    0.187946
    16  H    0.182052
    17  H    0.193026
    18  H    0.190278
    19  H    0.390089
    20  H    0.417648
    21  H    0.382191
 Sum of Mulliken atomic charges =   0.00000

 Dipole moment (field-independent basis, Debye):
    X=             -2.9062    Y=             -0.6885    Z=              2.8729  Tot=              4.1441
 Quadrupole moment (field-independent basis, Debye-Ang):
   XX=            -70.3888   YY=            -58.3003   ZZ=            -68.0846
   XY=              0.3950   XZ=             -4.9039   YZ=              1.4238

 Normal termination of Gaussian 09 at Fri Apr 12 11:52:51 2019.
