 Gaussian 09, Revision C.01,
 Gaussian 09:  EM64L-G09RevC.01 23-Sep-2011

 ------------------------------------------------
 # mpw1pw91/6-31+g** nmr scrf=(pcm,solvent=water)
 ------------------------------------------------

 99/9=1/99;
 -------
 comment
 -------
 Charge =  0 Multiplicity = 1

                         Standard orientation:
 ---------------------------------------------------------------------
 Center     Atomic      Atomic             Coordinates (Angstroms)
 Number     Number       Type             X           Y           Z
 ---------------------------------------------------------------------
      1          6           0        1.657956   -0.904680   -0.956909
      2          6           0        0.566778   -1.375951    0.027220
      3          6           0        1.334916    0.563701    0.763774
      4          6           0       -1.169257    0.381754    0.450699
      5          6           0        0.017997    1.357216    0.461671
      6          6           0       -0.854224   -0.882885   -0.351786
      7          8           0        0.995195   -0.727770    1.246446
      8          8           0        2.113070    0.338066   -0.395629
      9          8           0       -1.888407   -1.813672   -0.028193
     10          8           0       -2.286641    1.083215   -0.088631
     11          8           0        0.124108    2.025194   -0.786341
     12          1           0        1.278913   -0.744936   -1.971215
     13          1           0        2.500171   -1.603241   -0.993005
     14          1           0        0.570390   -2.453477    0.199974
     15          1           0        1.953948    1.065117    1.509738
     16          1           0       -1.376485    0.068076    1.481413
     17          1           0       -0.142182    2.085371    1.271046
     18          1           0       -0.891818   -0.642457   -1.421873
     19          1           0       -1.909562   -2.495609   -0.718375
     20          1           0       -2.970254    0.416916   -0.273426
     21          1           0       -0.796726    2.229043   -1.033513
 ---------------------------------------------------------------------

 SCF Done:  E(RmPW1PW91) =  -610.641750646     A.U. after   12 cycles

      1  C    Isotropic =   126.6441   Anisotropy =    53.0592

      2  C    Isotropic =   114.6598   Anisotropy =    42.2389

      3  C    Isotropic =    95.6510   Anisotropy =    35.5221

      4  C    Isotropic =   124.7557   Anisotropy =    34.8270

      5  C    Isotropic =   126.4091   Anisotropy =    36.5980

      6  C    Isotropic =   116.7763   Anisotropy =    28.4267

      7  O    Isotropic =   240.7955   Anisotropy =    65.1286

      8  O    Isotropic =   269.8753   Anisotropy =   113.3234

      9  O    Isotropic =   288.1841   Anisotropy =    35.6715

     10  O    Isotropic =   307.7309   Anisotropy =    22.2001

     11  O    Isotropic =   316.0847   Anisotropy =    47.5446

     12  H    Isotropic =    27.7869   Anisotropy =     6.9432

     13  H    Isotropic =    27.6184   Anisotropy =    10.5700

     14  H    Isotropic =    27.2070   Anisotropy =     6.9458

     15  H    Isotropic =    25.9259   Anisotropy =     8.6389

     16  H    Isotropic =    27.8786   Anisotropy =     3.9645

     17  H    Isotropic =    27.3664   Anisotropy =     7.9595

     18  H    Isotropic =    27.9648   Anisotropy =     4.3141

     19  H    Isotropic =    29.3109   Anisotropy =    19.2398

     20  H    Isotropic =    28.9532   Anisotropy =    18.0107

     21  H    Isotropic =    28.7858   Anisotropy =    17.9015

 The electronic state is 1-A.
 Alpha  occ. eigenvalues --  -19.27678 -19.26901 -19.26857 -19.26706 -19.25734
 Alpha  occ. eigenvalues --  -10.36053 -10.31880 -10.31564 -10.31287 -10.31231
 Alpha  occ. eigenvalues --  -10.30593  -1.14317  -1.08850  -1.07043  -1.05304
 Alpha  occ. eigenvalues --   -1.03954  -0.82161  -0.80857  -0.70676  -0.68486
 Alpha  occ. eigenvalues --   -0.64535  -0.59969  -0.57689  -0.56106  -0.54423
 Alpha  occ. eigenvalues --   -0.52340  -0.50435  -0.48760  -0.47802  -0.46211
 Alpha  occ. eigenvalues --   -0.45019  -0.44298  -0.41199  -0.40279  -0.38555
 Alpha  occ. eigenvalues --   -0.37494  -0.37001  -0.35939  -0.33314  -0.31742
 Alpha  occ. eigenvalues --   -0.30106  -0.28900  -0.28374
 Alpha virt. eigenvalues --    0.00556   0.01138   0.01742   0.02686   0.03981
 Alpha virt. eigenvalues --    0.04516   0.04863   0.05319   0.05991   0.08085
 Alpha virt. eigenvalues --    0.08588   0.09345   0.09840   0.10249   0.11459

 Mulliken atomic charges:
              1
     1  C   -0.256039
     2  C    0.409594
     3  C   -0.143958
     4  C   -0.119310
     5  C    0.285624
     6  C   -0.217646
     7  O   -0.349440
     8  O   -0.348266
     9  O   -0.569545
    10  O   -0.584581
    11  O   -0.555439
    12  H    0.168241
    13  H    0.177818
    14  H    0.194428
    15  H    0.186429
    16  H    0.190263
    17  H    0.167859
    18  H    0.185260
    19  H    0.394270
    20  H    0.392464
    21  H    0.391976
 Sum of Mulliken atomic charges =   0.00000

 Dipole moment (field-independent basis, Debye):
    X=             -2.2107    Y=             -3.7130    Z=             -1.7512  Tot=              4.6626
 Quadrupole moment (field-independent basis, Debye-Ang):
   XX=            -67.7078   YY=            -61.7972   ZZ=            -63.1233
   XY=             -1.2117   XZ=              5.2084   YZ=             10.9601

 Normal termination of Gaussian 09 at Fri Apr 12 11:58:15 2019.
