 Gaussian 09, Revision C.01,
 Gaussian 09:  EM64L-G09RevC.01 23-Sep-2011

 -----------------------------------------------------------
 # B3LYP/6-31+G** test scrf=(pcm,solvent=water,smd,dovacuum)
 -----------------------------------------------------------

 99/5=1,9=1/99;
 -------
 comment
 -------
 Charge =  0 Multiplicity = 1

                         Standard orientation:
 ---------------------------------------------------------------------
 Center     Atomic      Atomic             Coordinates (Angstroms)
 Number     Number       Type             X           Y           Z
 ---------------------------------------------------------------------
      1          6           0       -0.150231    1.487238    1.231605
      2          6           0       -1.210549    0.928605    0.262117
      3          6           0        0.711481    0.973470   -0.836539
      4          6           0       -0.026335   -1.316870    0.091925
      5          6           0        0.930501   -0.546543   -0.876304
      6          6           0       -1.374399   -0.590523    0.328065
      7          8           0       -0.648462    1.280193   -1.018939
      8          8           0        1.067649    1.474912    0.452814
      9          8           0       -2.334536   -0.930424   -0.667793
     10          8           0        0.586097   -1.492563    1.364194
     11          8           0        2.291503   -0.840125   -0.556790
     12          1           0       -0.021334    0.876738    2.126795
     13          1           0       -0.371815    2.521163    1.512509
     14          1           0       -2.181078    1.420519    0.345425
     15          1           0        1.309064    1.487612   -1.594189
     16          1           0       -0.244020   -2.301211   -0.351323
     17          1           0        0.758894   -0.891002   -1.900207
     18          1           0       -1.728971   -0.872226    1.330033
     19          1           0       -2.555746   -1.868582   -0.552817
     20          1           0        1.509479   -1.735398    1.169448
     21          1           0        2.544708   -0.185821    0.121218
 ---------------------------------------------------------------------

 SCF Done:  E(RB3LYP) =  -610.805636208     A.U. after   12 cycles

 The electronic state is 1-A.
 Alpha  occ. eigenvalues --  -19.18493 -19.17812 -19.17645 -19.16985 -19.16545
 Alpha  occ. eigenvalues --  -10.29424 -10.25089 -10.24829 -10.24629 -10.24557
 Alpha  occ. eigenvalues --  -10.23991  -1.11413  -1.05430  -1.04066  -1.02309
 Alpha  occ. eigenvalues --   -1.01198  -0.79504  -0.77433  -0.68143  -0.65866
 Alpha  occ. eigenvalues --   -0.62654  -0.58389  -0.55471  -0.53131  -0.52559
 Alpha  occ. eigenvalues --   -0.49549  -0.48466  -0.47430  -0.45974  -0.44374
 Alpha  occ. eigenvalues --   -0.42632  -0.41325  -0.40523  -0.39234  -0.37785
 Alpha  occ. eigenvalues --   -0.36789  -0.34991  -0.34105  -0.32336  -0.30050
 Alpha  occ. eigenvalues --   -0.28762  -0.28427  -0.26239
 Alpha virt. eigenvalues --    0.00597   0.01179   0.02306   0.02901   0.04183
 Alpha virt. eigenvalues --    0.04966   0.05113   0.05535   0.06286   0.08121
 Alpha virt. eigenvalues --    0.08992   0.09367   0.10058   0.10969   0.11934

 Mulliken atomic charges:
              1
     1  C   -0.129505
     2  C    0.366925
     3  C   -0.050316
     4  C    0.250284
     5  C    0.063192
     6  C   -0.213740
     7  O   -0.391997
     8  O   -0.468577
     9  O   -0.625743
    10  O   -0.625093
    11  O   -0.615221
    12  H    0.178936
    13  H    0.166709
    14  H    0.175409
    15  H    0.176908
    16  H    0.150262
    17  H    0.180796
    18  H    0.172678
    19  H    0.414243
    20  H    0.411180
    21  H    0.412668
 Sum of Mulliken atomic charges =   0.00000

 Dipole moment (field-independent basis, Debye):
    X=             -0.8978    Y=             -1.4320    Z=              1.8722  Tot=              2.5222
 Quadrupole moment (field-independent basis, Debye-Ang):
   XX=            -66.8708   YY=            -61.7325   ZZ=            -67.4874
   XY=              4.0395   XZ=             -4.3992   YZ=              4.2033

 Normal termination of Gaussian 09 at Tue Apr 16 02:22:48 2019.
