 Gaussian 09, Revision C.01,
 Gaussian 09:  EM64L-G09RevC.01 23-Sep-2011

 -----------------------------------------------------------
 # B3LYP/6-31+G** test scrf=(pcm,solvent=water,smd,dovacuum)
 -----------------------------------------------------------

 99/5=1,9=1/99;
 -------
 comment
 -------
 Charge =  0 Multiplicity = 1

                         Standard orientation:
 ---------------------------------------------------------------------
 Center     Atomic      Atomic             Coordinates (Angstroms)
 Number     Number       Type             X           Y           Z
 ---------------------------------------------------------------------
      1          6           0       -0.199692    1.466911    1.243997
      2          6           0       -1.265395    0.821463    0.341447
      3          6           0        0.595366    0.996652   -0.862673
      4          6           0        0.070937   -1.330600    0.117773
      5          6           0        0.938350   -0.501842   -0.887013
      6          6           0       -1.325118   -0.710044    0.363926
      7          8           0       -0.799974    1.189761   -0.981259
      8          8           0        0.968427    1.551351    0.395330
      9          8           0       -2.265777   -1.150470   -0.610797
     10          8           0        0.722534   -1.425445    1.380204
     11          8           0        2.325806   -0.674690   -0.600096
     12          1           0        0.028466    0.870657    2.128563
     13          1           0       -0.485889    2.481218    1.536811
     14          1           0       -2.261985    1.246981    0.471071
     15          1           0        1.106796    1.544501   -1.658182
     16          1           0       -0.083877   -2.335854   -0.299175
     17          1           0        0.773278   -0.877151   -1.901556
     18          1           0       -1.687182   -1.069666    1.332359
     19          1           0       -2.079890   -0.639559   -1.418241
     20          1           0        1.656754   -1.607412    1.171650
     21          1           0        2.538718    0.006997    0.064901
 ---------------------------------------------------------------------

 SCF Done:  E(RB3LYP) =  -610.805814255     A.U. after   12 cycles

 The electronic state is 1-A.
 Alpha  occ. eigenvalues --  -19.18794 -19.17953 -19.17635 -19.16956 -19.16551
 Alpha  occ. eigenvalues --  -10.29576 -10.25175 -10.24771 -10.24684 -10.24465
 Alpha  occ. eigenvalues --  -10.24086  -1.11479  -1.05397  -1.04238  -1.02315
 Alpha  occ. eigenvalues --   -1.01185  -0.79340  -0.77475  -0.68317  -0.65776
 Alpha  occ. eigenvalues --   -0.62872  -0.58431  -0.55797  -0.53279  -0.52344
 Alpha  occ. eigenvalues --   -0.50520  -0.48328  -0.46696  -0.45230  -0.44165
 Alpha  occ. eigenvalues --   -0.42607  -0.41766  -0.40802  -0.39072  -0.38421
 Alpha  occ. eigenvalues --   -0.36911  -0.35398  -0.33827  -0.32340  -0.30176
 Alpha  occ. eigenvalues --   -0.29160  -0.28179  -0.26352
 Alpha virt. eigenvalues --    0.00599   0.01162   0.02466   0.03036   0.04314
 Alpha virt. eigenvalues --    0.05003   0.05131   0.05597   0.05903   0.08149
 Alpha virt. eigenvalues --    0.09221   0.09359   0.10076   0.11000   0.11735

 Mulliken atomic charges:
              1
     1  C   -0.158765
     2  C    0.355202
     3  C   -0.039633
     4  C    0.268849
     5  C    0.038202
     6  C   -0.200708
     7  O   -0.417230
     8  O   -0.464948
     9  O   -0.586339
    10  O   -0.625136
    11  O   -0.614678
    12  H    0.181343
    13  H    0.167985
    14  H    0.181132
    15  H    0.178745
    16  H    0.154130
    17  H    0.181655
    18  H    0.174796
    19  H    0.400872
    20  H    0.411689
    21  H    0.412834
 Sum of Mulliken atomic charges =   0.00000

 Dipole moment (field-independent basis, Debye):
    X=              0.0908    Y=              1.6867    Z=              0.1181  Tot=              1.6933
 Quadrupole moment (field-independent basis, Debye-Ang):
   XX=            -71.1534   YY=            -69.9053   ZZ=            -62.5351
   XY=             -4.5622   XZ=             -1.0514   YZ=              3.1479

 Normal termination of Gaussian 09 at Tue Apr 16 02:29:28 2019.
