 Gaussian 09, Revision C.01,
 Gaussian 09:  EM64L-G09RevC.01 23-Sep-2011

 -----------------------------------------------------------
 # B3LYP/6-31+G** test scrf=(pcm,solvent=water,smd,dovacuum)
 -----------------------------------------------------------

 99/5=1,9=1/99;
 -------
 comment
 -------
 Charge =  0 Multiplicity = 1

                         Standard orientation:
 ---------------------------------------------------------------------
 Center     Atomic      Atomic             Coordinates (Angstroms)
 Number     Number       Type             X           Y           Z
 ---------------------------------------------------------------------
      1          6           0       -0.553193    1.504670    1.153547
      2          6           0       -1.418369    0.612636    0.252574
      3          6           0        0.457942    1.049143   -0.863221
      4          6           0        0.325264   -1.242698    0.239194
      5          6           0        1.013605   -0.387975   -0.855097
      6          6           0       -1.179521   -0.899015    0.380745
      7          8           0       -0.951374    0.993025   -1.064201
      8          8           0        0.649579    1.702061    0.383652
      9          8           0       -1.942130   -1.574070   -0.617350
     10          8           0        1.032863   -0.987036    1.461736
     11          8           0        2.419096   -0.406895   -0.696282
     12          1           0       -0.307359    1.041136    2.110395
     13          1           0       -1.029919    2.476286    1.320859
     14          1           0       -2.485213    0.837878    0.305806
     15          1           0        0.910301    1.649962   -1.656822
     16          1           0        0.410665   -2.302580   -0.025642
     17          1           0        0.788491   -0.820538   -1.836906
     18          1           0       -1.535184   -1.266175    1.349375
     19          1           0       -1.828264   -1.059402   -1.436081
     20          1           0        0.984943   -1.784204    2.011518
     21          1           0        2.552900   -0.409604    0.270604
 ---------------------------------------------------------------------

 SCF Done:  E(RB3LYP) =  -610.807618750     A.U. after   12 cycles

 The electronic state is 1-A.
 Alpha  occ. eigenvalues --  -19.18501 -19.17468 -19.17258 -19.16983 -19.16782
 Alpha  occ. eigenvalues --  -10.29104 -10.25044 -10.24833 -10.24713 -10.24405
 Alpha  occ. eigenvalues --  -10.23897  -1.11075  -1.05276  -1.04086  -1.02344
 Alpha  occ. eigenvalues --   -1.00905  -0.79115  -0.77709  -0.67872  -0.65890
 Alpha  occ. eigenvalues --   -0.62416  -0.58990  -0.55559  -0.53200  -0.51977
 Alpha  occ. eigenvalues --   -0.50893  -0.48387  -0.45812  -0.45199  -0.44207
 Alpha  occ. eigenvalues --   -0.43328  -0.41684  -0.40630  -0.38634  -0.36934
 Alpha  occ. eigenvalues --   -0.36388  -0.35637  -0.33640  -0.32748  -0.31361
 Alpha  occ. eigenvalues --   -0.29272  -0.27250  -0.25971
 Alpha virt. eigenvalues --    0.00489   0.01475   0.02405   0.02743   0.04388
 Alpha virt. eigenvalues --    0.04980   0.05189   0.05530   0.05888   0.08285
 Alpha virt. eigenvalues --    0.08781   0.09198   0.10279   0.10976   0.11748

 Mulliken atomic charges:
              1
     1  C   -0.153154
     2  C    0.338640
     3  C    0.037427
     4  C    0.206199
     5  C    0.053264
     6  C   -0.191829
     7  O   -0.432373
     8  O   -0.456932
     9  O   -0.583058
    10  O   -0.686617
    11  O   -0.594877
    12  H    0.176853
    13  H    0.164781
    14  H    0.179636
    15  H    0.169038
    16  H    0.171356
    17  H    0.181119
    18  H    0.173800
    19  H    0.401595
    20  H    0.438006
    21  H    0.407127
 Sum of Mulliken atomic charges =   0.00000

 Dipole moment (field-independent basis, Debye):
    X=             -2.4567    Y=             -1.8159    Z=              2.8078  Tot=              4.1493
 Quadrupole moment (field-independent basis, Debye-Ang):
   XX=            -75.2971   YY=            -66.1650   ZZ=            -58.1216
   XY=             -7.4984   XZ=             -0.5124   YZ=             -4.2723

 Normal termination of Gaussian 09 at Tue Apr 16 02:39:06 2019.
