 Gaussian 09, Revision C.01,
 Gaussian 09:  EM64L-G09RevC.01 23-Sep-2011

 -----------------------------------------------------------
 # B3LYP/6-31+G** test scrf=(pcm,solvent=water,smd,dovacuum)
 -----------------------------------------------------------

 99/5=1,9=1/99;
 -------
 comment
 -------
 Charge =  0 Multiplicity = 1

                         Standard orientation:
 ---------------------------------------------------------------------
 Center     Atomic      Atomic             Coordinates (Angstroms)
 Number     Number       Type             X           Y           Z
 ---------------------------------------------------------------------
      1          6           0       -0.500895    1.527269    1.151036
      2          6           0       -1.376068    0.725155    0.172914
      3          6           0        0.576310    1.052033   -0.824505
      4          6           0        0.229697   -1.251647    0.202821
      5          6           0        1.012023   -0.425100   -0.847444
      6          6           0       -1.248293   -0.793604    0.330927
      7          8           0       -0.812701    1.117335   -1.093638
      8          8           0        0.757702    1.644077    0.458676
      9          8           0       -2.053442   -1.372476   -0.693203
     10          8           0        0.924865   -1.093629    1.448427
     11          8           0        2.407559   -0.568967   -0.657200
     12          1           0       -0.348582    1.026139    2.108878
     13          1           0       -0.911707    2.529034    1.316922
     14          1           0       -2.426948    1.020183    0.178247
     15          1           0        1.119579    1.639483   -1.570258
     16          1           0        0.246061   -2.308005   -0.094180
     17          1           0        0.772052   -0.807236   -1.845549
     18          1           0       -1.612419   -1.082841    1.328060
     19          1           0       -2.103235   -2.326974   -0.523121
     20          1           0        0.800028   -1.901234    1.970032
     21          1           0        2.516664   -0.603903    0.311969
 ---------------------------------------------------------------------

 SCF Done:  E(RB3LYP) =  -610.807405926     A.U. after   12 cycles

 The electronic state is 1-A.
 Alpha  occ. eigenvalues --  -19.18159 -19.17324 -19.17254 -19.17017 -19.16740
 Alpha  occ. eigenvalues --  -10.28936 -10.24928 -10.24919 -10.24772 -10.24323
 Alpha  occ. eigenvalues --  -10.23784  -1.10990  -1.05273  -1.03910  -1.02304
 Alpha  occ. eigenvalues --   -1.00899  -0.79260  -0.77662  -0.67705  -0.65945
 Alpha  occ. eigenvalues --   -0.61931  -0.58913  -0.55401  -0.53444  -0.52484
 Alpha  occ. eigenvalues --   -0.50034  -0.48075  -0.46658  -0.45497  -0.44315
 Alpha  occ. eigenvalues --   -0.42291  -0.41661  -0.40576  -0.39220  -0.36292
 Alpha  occ. eigenvalues --   -0.35758  -0.35672  -0.34615  -0.31937  -0.31266
 Alpha  occ. eigenvalues --   -0.28787  -0.27568  -0.25833
 Alpha virt. eigenvalues --    0.00413   0.01477   0.02199   0.02776   0.04372
 Alpha virt. eigenvalues --    0.04791   0.05164   0.05506   0.06204   0.08099
 Alpha virt. eigenvalues --    0.08869   0.09097   0.10227   0.10926   0.11824

 Mulliken atomic charges:
              1
     1  C   -0.129615
     2  C    0.349936
     3  C    0.030014
     4  C    0.174408
     5  C    0.084627
     6  C   -0.190367
     7  O   -0.407627
     8  O   -0.460958
     9  O   -0.624320
    10  O   -0.686971
    11  O   -0.594843
    12  H    0.174596
    13  H    0.163376
    14  H    0.173121
    15  H    0.166932
    16  H    0.167968
    17  H    0.179284
    18  H    0.170967
    19  H    0.414883
    20  H    0.437827
    21  H    0.406761
 Sum of Mulliken atomic charges =   0.00000

 Dipole moment (field-independent basis, Debye):
    X=             -3.2634    Y=             -4.9447    Z=              4.5451  Tot=              7.4672
 Quadrupole moment (field-independent basis, Debye-Ang):
   XX=            -74.3501   YY=            -54.2988   ZZ=            -63.7560
   XY=              0.5861   XZ=             -4.7820   YZ=             -4.3881

 Normal termination of Gaussian 09 at Mon Apr 15 18:41:46 2019.
