 Gaussian 09, Revision C.01,
 Gaussian 09:  EM64L-G09RevC.01 23-Sep-2011

 -----------------------------------------------------------
 # B3LYP/6-31+G** test scrf=(pcm,solvent=water,smd,dovacuum)
 -----------------------------------------------------------

 99/5=1,9=1/99;
 -------
 comment
 -------
 Charge =  0 Multiplicity = 1

                         Standard orientation:
 ---------------------------------------------------------------------
 Center     Atomic      Atomic             Coordinates (Angstroms)
 Number     Number       Type             X           Y           Z
 ---------------------------------------------------------------------
      1          6           0       -0.876289    1.585961    0.923185
      2          6           0       -1.517683    0.475102    0.100258
      3          6           0        0.406449    0.977910   -0.917307
      4          6           0        0.456607   -1.139016    0.414352
      5          6           0        1.082019   -0.399345   -0.793267
      6          6           0       -1.087634   -0.957701    0.456519
      7          8           0       -0.967459    0.775424   -1.207010
      8          8           0        0.449757    1.675908    0.349088
      9          8           0       -1.709844   -1.864005   -0.451954
     10          8           0        1.106594   -0.702623    1.616180
     11          8           0        2.488475   -0.305460   -0.663020
     12          1           0       -0.793253    1.370766    1.991242
     13          1           0       -1.404448    2.534224    0.782704
     14          1           0       -2.604326    0.545427    0.030393
     15          1           0        0.853289    1.604660   -1.692706
     16          1           0        0.658205   -2.211319    0.347394
     17          1           0        0.869488   -0.943132   -1.721041
     18          1           0       -1.439465   -1.227354    1.457407
     19          1           0       -1.609468   -1.480634   -1.340824
     20          1           0        1.082244    0.273566    1.602193
     21          1           0        2.666743   -0.357621    0.294513
 ---------------------------------------------------------------------

 SCF Done:  E(RB3LYP) =  -610.806558356     A.U. after   12 cycles

 The electronic state is 1-A.
 Alpha  occ. eigenvalues --  -19.18814 -19.18321 -19.17296 -19.17144 -19.17011
 Alpha  occ. eigenvalues --  -10.29535 -10.25353 -10.25042 -10.24964 -10.24660
 Alpha  occ. eigenvalues --  -10.24468  -1.11431  -1.05516  -1.04175  -1.02529
 Alpha  occ. eigenvalues --   -1.01185  -0.79592  -0.77824  -0.68116  -0.66273
 Alpha  occ. eigenvalues --   -0.62914  -0.59462  -0.56721  -0.52381  -0.51977
 Alpha  occ. eigenvalues --   -0.49405  -0.49021  -0.47533  -0.45609  -0.44678
 Alpha  occ. eigenvalues --   -0.43453  -0.41713  -0.41044  -0.39050  -0.37659
 Alpha  occ. eigenvalues --   -0.36101  -0.35934  -0.33942  -0.32980  -0.31814
 Alpha  occ. eigenvalues --   -0.29752  -0.27616  -0.26233
 Alpha virt. eigenvalues --    0.00781   0.01514   0.02311   0.03144   0.04264
 Alpha virt. eigenvalues --    0.04947   0.05254   0.05481   0.05678   0.07883
 Alpha virt. eigenvalues --    0.08867   0.09470   0.10114   0.10967   0.11472

 Mulliken atomic charges:
              1
     1  C   -0.157242
     2  C    0.318040
     3  C    0.110220
     4  C    0.096153
     5  C    0.045607
     6  C   -0.175528
     7  O   -0.439379
     8  O   -0.511274
     9  O   -0.576872
    10  O   -0.612437
    11  O   -0.587368
    12  H    0.186787
    13  H    0.174221
    14  H    0.184305
    15  H    0.173427
    16  H    0.172697
    17  H    0.183396
    18  H    0.178763
    19  H    0.402311
    20  H    0.430729
    21  H    0.403446
 Sum of Mulliken atomic charges =   0.00000

 Dipole moment (field-independent basis, Debye):
    X=             -2.9148    Y=              2.0628    Z=              0.9457  Tot=              3.6940
 Quadrupole moment (field-independent basis, Debye-Ang):
   XX=            -71.8254   YY=            -70.7247   ZZ=            -63.9759
   XY=             -4.8196   XZ=             -1.4774   YZ=              4.3757

 Normal termination of Gaussian 09 at Mon Apr 15 18:26:41 2019.
