 Gaussian 09, Revision C.01,
 Gaussian 09:  EM64L-G09RevC.01 23-Sep-2011

 ------------------------------------------------
 # mpw1pw91/6-31+g** nmr scrf=(pcm,solvent=water)
 ------------------------------------------------

 99/9=1/99;
 -------
 comment
 -------
 Charge =  0 Multiplicity = 1

                         Standard orientation:
 ---------------------------------------------------------------------
 Center     Atomic      Atomic             Coordinates (Angstroms)
 Number     Number       Type             X           Y           Z
 ---------------------------------------------------------------------
      1          6           0       -0.150231    1.487238    1.231605
      2          6           0       -1.210549    0.928605    0.262117
      3          6           0        0.711481    0.973470   -0.836539
      4          6           0       -0.026335   -1.316870    0.091925
      5          6           0        0.930501   -0.546543   -0.876304
      6          6           0       -1.374399   -0.590523    0.328065
      7          8           0       -0.648462    1.280193   -1.018939
      8          8           0        1.067649    1.474912    0.452814
      9          8           0       -2.334536   -0.930424   -0.667793
     10          8           0        0.586097   -1.492563    1.364194
     11          8           0        2.291503   -0.840125   -0.556790
     12          1           0       -0.021334    0.876738    2.126795
     13          1           0       -0.371815    2.521163    1.512509
     14          1           0       -2.181078    1.420519    0.345425
     15          1           0        1.309064    1.487612   -1.594189
     16          1           0       -0.244020   -2.301211   -0.351323
     17          1           0        0.758894   -0.891002   -1.900207
     18          1           0       -1.728971   -0.872226    1.330033
     19          1           0       -2.555746   -1.868582   -0.552817
     20          1           0        1.509479   -1.735398    1.169448
     21          1           0        2.544708   -0.185821    0.121218
 ---------------------------------------------------------------------

 SCF Done:  E(RmPW1PW91) =  -610.647045963     A.U. after   12 cycles

      1  C    Isotropic =   129.9554   Anisotropy =    65.4350

      2  C    Isotropic =   117.8265   Anisotropy =    47.1837

      3  C    Isotropic =    94.3115   Anisotropy =    28.4278

      4  C    Isotropic =   123.1686   Anisotropy =    42.9916

      5  C    Isotropic =   127.8120   Anisotropy =    44.6604

      6  C    Isotropic =   122.0593   Anisotropy =    42.9061

      7  O    Isotropic =   242.7758   Anisotropy =    58.1233

      8  O    Isotropic =   274.3587   Anisotropy =    93.5297

      9  O    Isotropic =   287.4899   Anisotropy =    72.2424

     10  O    Isotropic =   303.3582   Anisotropy =    57.8588

     11  O    Isotropic =   308.7612   Anisotropy =    44.0325

     12  H    Isotropic =    27.3345   Anisotropy =     5.8812

     13  H    Isotropic =    27.6970   Anisotropy =    11.2443

     14  H    Isotropic =    26.9353   Anisotropy =     8.0500

     15  H    Isotropic =    26.1464   Anisotropy =     8.1008

     16  H    Isotropic =    27.7969   Anisotropy =     7.3456

     17  H    Isotropic =    27.8871   Anisotropy =     6.2489

     18  H    Isotropic =    27.6694   Anisotropy =     5.0424

     19  H    Isotropic =    29.8670   Anisotropy =    19.1979

     20  H    Isotropic =    28.9286   Anisotropy =    17.3335

     21  H    Isotropic =    29.3364   Anisotropy =    15.3623

 The electronic state is 1-A.
 Alpha  occ. eigenvalues --  -19.27836 -19.27322 -19.27249 -19.26425 -19.25966
 Alpha  occ. eigenvalues --  -10.35998 -10.31864 -10.31636 -10.31419 -10.31400
 Alpha  occ. eigenvalues --  -10.30673  -1.14608  -1.08729  -1.07303  -1.05483
 Alpha  occ. eigenvalues --   -1.04141  -0.82461  -0.80384  -0.70861  -0.68525
 Alpha  occ. eigenvalues --   -0.65079  -0.60683  -0.57748  -0.55396  -0.54607
 Alpha  occ. eigenvalues --   -0.51621  -0.50558  -0.49449  -0.47969  -0.46375
 Alpha  occ. eigenvalues --   -0.44550  -0.43100  -0.42370  -0.40913  -0.39220
 Alpha  occ. eigenvalues --   -0.38361  -0.36488  -0.35692  -0.34011  -0.31512
 Alpha  occ. eigenvalues --   -0.30298  -0.29945  -0.27696
 Alpha virt. eigenvalues --    0.00556   0.01071   0.02136   0.02710   0.03987
 Alpha virt. eigenvalues --    0.04800   0.04967   0.05389   0.06142   0.08038
 Alpha virt. eigenvalues --    0.08873   0.09219   0.09804   0.10856   0.11686

 Mulliken atomic charges:
              1
     1  C   -0.179844
     2  C    0.367154
     3  C   -0.168844
     4  C    0.228881
     5  C    0.012938
     6  C   -0.324095
     7  O   -0.314090
     8  O   -0.406235
     9  O   -0.555121
    10  O   -0.563111
    11  O   -0.563838
    12  H    0.192734
    13  H    0.178771
    14  H    0.191165
    15  H    0.192675
    16  H    0.159619
    17  H    0.191656
    18  H    0.185898
    19  H    0.388225
    20  H    0.390616
    21  H    0.394844
 Sum of Mulliken atomic charges =   0.00000

 Dipole moment (field-independent basis, Debye):
    X=             -0.8577    Y=             -1.2076    Z=              1.7015  Tot=              2.2559
 Quadrupole moment (field-independent basis, Debye-Ang):
   XX=            -65.9949   YY=            -61.4247   ZZ=            -66.5738
   XY=              3.6787   XZ=             -3.9241   YZ=              3.8584

 Normal termination of Gaussian 09 at Fri Apr 12 11:42:57 2019.
