 Gaussian 09, Revision C.01,
 Gaussian 09:  EM64L-G09RevC.01 23-Sep-2011

 ------------------------------------------------
 # mpw1pw91/6-31+g** nmr scrf=(pcm,solvent=water)
 ------------------------------------------------

 99/9=1/99;
 -------
 comment
 -------
 Charge =  0 Multiplicity = 1

                         Standard orientation:
 ---------------------------------------------------------------------
 Center     Atomic      Atomic             Coordinates (Angstroms)
 Number     Number       Type             X           Y           Z
 ---------------------------------------------------------------------
      1          6           0       -0.199692    1.466911    1.243997
      2          6           0       -1.265395    0.821463    0.341447
      3          6           0        0.595366    0.996652   -0.862673
      4          6           0        0.070937   -1.330600    0.117773
      5          6           0        0.938350   -0.501842   -0.887013
      6          6           0       -1.325118   -0.710044    0.363926
      7          8           0       -0.799974    1.189761   -0.981259
      8          8           0        0.968427    1.551351    0.395330
      9          8           0       -2.265777   -1.150470   -0.610797
     10          8           0        0.722534   -1.425445    1.380204
     11          8           0        2.325806   -0.674690   -0.600096
     12          1           0        0.028466    0.870657    2.128563
     13          1           0       -0.485889    2.481218    1.536811
     14          1           0       -2.261985    1.246981    0.471071
     15          1           0        1.106796    1.544501   -1.658182
     16          1           0       -0.083877   -2.335854   -0.299175
     17          1           0        0.773278   -0.877151   -1.901556
     18          1           0       -1.687182   -1.069666    1.332359
     19          1           0       -2.079890   -0.639559   -1.418241
     20          1           0        1.656754   -1.607412    1.171650
     21          1           0        2.538718    0.006997    0.064901
 ---------------------------------------------------------------------

 SCF Done:  E(RmPW1PW91) =  -610.648566262     A.U. after   12 cycles

      1  C    Isotropic =   130.1745   Anisotropy =    66.4379

      2  C    Isotropic =   117.0122   Anisotropy =    44.7125

      3  C    Isotropic =    94.0648   Anisotropy =    28.2247

      4  C    Isotropic =   123.6260   Anisotropy =    43.9006

      5  C    Isotropic =   128.2003   Anisotropy =    44.3708

      6  C    Isotropic =   123.2400   Anisotropy =    42.7830

      7  O    Isotropic =   244.9869   Anisotropy =    60.4718

      8  O    Isotropic =   274.3560   Anisotropy =    90.7323

      9  O    Isotropic =   288.4482   Anisotropy =    39.7501

     10  O    Isotropic =   304.0606   Anisotropy =    57.8495

     11  O    Isotropic =   308.6565   Anisotropy =    47.2018

     12  H    Isotropic =    27.1721   Anisotropy =     5.8404

     13  H    Isotropic =    27.6454   Anisotropy =    11.1554

     14  H    Isotropic =    27.0320   Anisotropy =     8.3480

     15  H    Isotropic =    26.1471   Anisotropy =     8.1197

     16  H    Isotropic =    27.6191   Anisotropy =     7.2990

     17  H    Isotropic =    27.9230   Anisotropy =     6.1801

     18  H    Isotropic =    27.8077   Anisotropy =     5.7111

     19  H    Isotropic =    29.0221   Anisotropy =    13.3338

     20  H    Isotropic =    28.9997   Anisotropy =    17.3925

     21  H    Isotropic =    29.2956   Anisotropy =    15.3519

 The electronic state is 1-A.
 Alpha  occ. eigenvalues --  -19.28546 -19.27607 -19.27303 -19.26320 -19.25992
 Alpha  occ. eigenvalues --  -10.36337 -10.32099 -10.31575 -10.31572 -10.31270
 Alpha  occ. eigenvalues --  -10.30858  -1.14932  -1.08759  -1.07431  -1.05511
 Alpha  occ. eigenvalues --   -1.04348  -0.82420  -0.80516  -0.71111  -0.68507
 Alpha  occ. eigenvalues --   -0.65470  -0.60815  -0.58214  -0.55506  -0.54604
 Alpha  occ. eigenvalues --   -0.52641  -0.50514  -0.48793  -0.47272  -0.46176
 Alpha  occ. eigenvalues --   -0.44574  -0.43757  -0.42702  -0.40839  -0.40068
 Alpha  occ. eigenvalues --   -0.38604  -0.37048  -0.35548  -0.33988  -0.31815
 Alpha  occ. eigenvalues --   -0.30781  -0.29742  -0.27913
 Alpha virt. eigenvalues --    0.00545   0.01072   0.02314   0.02853   0.04166
 Alpha virt. eigenvalues --    0.04852   0.04901   0.05448   0.05755   0.08032
 Alpha virt. eigenvalues --    0.09129   0.09205   0.09840   0.10811   0.11485

 Mulliken atomic charges:
              1
     1  C   -0.215385
     2  C    0.349387
     3  C   -0.145798
     4  C    0.236005
     5  C   -0.020380
     6  C   -0.297709
     7  O   -0.358655
     8  O   -0.403003
     9  O   -0.513410
    10  O   -0.565728
    11  O   -0.562651
    12  H    0.197224
    13  H    0.180969
    14  H    0.199356
    15  H    0.196010
    16  H    0.174112
    17  H    0.194113
    18  H    0.189523
    19  H    0.379159
    20  H    0.391464
    21  H    0.395398
 Sum of Mulliken atomic charges =   0.00000

 Dipole moment (field-independent basis, Debye):
    X=              0.0917    Y=              1.6043    Z=              0.1846  Tot=              1.6175
 Quadrupole moment (field-independent basis, Debye-Ang):
   XX=            -69.8621   YY=            -68.7186   ZZ=            -61.9084
   XY=             -4.1205   XZ=             -0.9861   YZ=              2.8758

 Normal termination of Gaussian 09 at Fri Apr 12 11:42:27 2019.
