 Gaussian 09, Revision C.01,
 Gaussian 09:  EM64L-G09RevC.01 23-Sep-2011

 -----------------------------------------------------------
 # B3LYP/6-31+G** test scrf=(pcm,solvent=water,smd,dovacuum)
 -----------------------------------------------------------

 99/5=1,9=1/99;
 -------
 comment
 -------
 Charge =  0 Multiplicity = 1

                         Standard orientation:
 ---------------------------------------------------------------------
 Center     Atomic      Atomic             Coordinates (Angstroms)
 Number     Number       Type             X           Y           Z
 ---------------------------------------------------------------------
      1          6           0       -0.861572    1.583107    0.938605
      2          6           0       -1.497611    0.526779    0.036622
      3          6           0        0.470627    1.010255   -0.876978
      4          6           0        0.412651   -1.156327    0.373636
      5          6           0        1.084148   -0.398495   -0.794550
      6          6           0       -1.120182   -0.922486    0.406051
      7          8           0       -0.891614    0.878902   -1.223818
      8          8           0        0.491160    1.650905    0.424911
      9          8           0       -1.667263   -1.839892   -0.536829
     10          8           0        1.053470   -0.785037    1.600510
     11          8           0        2.492459   -0.373438   -0.640553
     12          1           0       -0.829957    1.320788    1.998949
     13          1           0       -1.352691    2.553713    0.817414
     14          1           0       -2.579360    0.638648   -0.068738
     15          1           0        0.975357    1.652004   -1.603398
     16          1           0        0.577928   -2.232136    0.271766
     17          1           0        0.857532   -0.896984   -1.743087
     18          1           0       -1.475183   -1.141759    1.423775
     19          1           0       -2.633250   -1.741286   -0.528931
     20          1           0        1.053790    0.192047    1.619932
     21          1           0        2.651785   -0.453539    0.318241
 ---------------------------------------------------------------------

 SCF Done:  E(RB3LYP) =  -610.806115765     A.U. after   12 cycles

 The electronic state is 1-A.
 Alpha  occ. eigenvalues --  -19.18530 -19.18223 -19.17232 -19.17114 -19.16967
 Alpha  occ. eigenvalues --  -10.29410 -10.25219 -10.25095 -10.25074 -10.24580
 Alpha  occ. eigenvalues --  -10.24344  -1.11369  -1.05514  -1.04024  -1.02486
 Alpha  occ. eigenvalues --   -1.01154  -0.79486  -0.78055  -0.67940  -0.66149
 Alpha  occ. eigenvalues --   -0.62660  -0.59422  -0.56168  -0.53316  -0.52067
 Alpha  occ. eigenvalues --   -0.49034  -0.48582  -0.47131  -0.45659  -0.44903
 Alpha  occ. eigenvalues --   -0.43509  -0.41993  -0.40668  -0.39623  -0.37754
 Alpha  occ. eigenvalues --   -0.35981  -0.35437  -0.34263  -0.32312  -0.30806
 Alpha  occ. eigenvalues --   -0.29715  -0.28155  -0.26117
 Alpha virt. eigenvalues --    0.00793   0.01302   0.02410   0.03179   0.04363
 Alpha virt. eigenvalues --    0.04538   0.05119   0.05497   0.05822   0.08029
 Alpha virt. eigenvalues --    0.08976   0.09526   0.10116   0.10894   0.11720

 Mulliken atomic charges:
              1
     1  C   -0.154599
     2  C    0.290869
     3  C    0.093524
     4  C    0.020356
     5  C    0.098601
     6  C   -0.086371
     7  O   -0.411572
     8  O   -0.515478
     9  O   -0.619745
    10  O   -0.614063
    11  O   -0.584734
    12  H    0.184870
    13  H    0.172608
    14  H    0.178116
    15  H    0.171915
    16  H    0.171247
    17  H    0.182361
    18  H    0.172348
    19  H    0.413333
    20  H    0.432708
    21  H    0.403706
 Sum of Mulliken atomic charges =   0.00000

 Dipole moment (field-independent basis, Debye):
    X=             -5.4050    Y=              1.4702    Z=              2.6544  Tot=              6.1985
 Quadrupole moment (field-independent basis, Debye-Ang):
   XX=            -60.9734   YY=            -69.3211   ZZ=            -68.4535
   XY=              0.6269   XZ=             -2.9509   YZ=              2.0272

 Normal termination of Gaussian 09 at Mon Apr 15 18:32:36 2019.
