 Gaussian 09, Revision C.01,
 Gaussian 09:  EM64L-G09RevC.01 23-Sep-2011

 ------------------------------------------------
 # mpw1pw91/6-31+g** nmr scrf=(pcm,solvent=water)
 ------------------------------------------------

 99/9=1/99;
 -------
 comment
 -------
 Charge =  0 Multiplicity = 1

                         Standard orientation:
 ---------------------------------------------------------------------
 Center     Atomic      Atomic             Coordinates (Angstroms)
 Number     Number       Type             X           Y           Z
 ---------------------------------------------------------------------
      1          6           0       -0.500895    1.527269    1.151036
      2          6           0       -1.376068    0.725155    0.172914
      3          6           0        0.576310    1.052033   -0.824505
      4          6           0        0.229697   -1.251647    0.202821
      5          6           0        1.012023   -0.425100   -0.847444
      6          6           0       -1.248293   -0.793604    0.330927
      7          8           0       -0.812701    1.117335   -1.093638
      8          8           0        0.757702    1.644077    0.458676
      9          8           0       -2.053442   -1.372476   -0.693203
     10          8           0        0.924865   -1.093629    1.448427
     11          8           0        2.407559   -0.568967   -0.657200
     12          1           0       -0.348582    1.026139    2.108878
     13          1           0       -0.911707    2.529034    1.316922
     14          1           0       -2.426948    1.020183    0.178247
     15          1           0        1.119579    1.639483   -1.570258
     16          1           0        0.246061   -2.308005   -0.094180
     17          1           0        0.772052   -0.807236   -1.845549
     18          1           0       -1.612419   -1.082841    1.328060
     19          1           0       -2.103235   -2.326974   -0.523121
     20          1           0        0.800028   -1.901234    1.970032
     21          1           0        2.516664   -0.603903    0.311969
 ---------------------------------------------------------------------

 SCF Done:  E(RmPW1PW91) =  -610.648319760     A.U. after   12 cycles

      1  C    Isotropic =   129.8734   Anisotropy =    63.2463

      2  C    Isotropic =   118.2873   Anisotropy =    46.1056

      3  C    Isotropic =    91.5249   Anisotropy =    23.9198

      4  C    Isotropic =   121.5174   Anisotropy =    44.7455

      5  C    Isotropic =   128.1050   Anisotropy =    44.8759

      6  C    Isotropic =   120.8125   Anisotropy =    42.1196

      7  O    Isotropic =   239.1047   Anisotropy =    54.8970

      8  O    Isotropic =   274.2123   Anisotropy =    98.1559

      9  O    Isotropic =   289.1446   Anisotropy =    70.2064

     10  O    Isotropic =   300.6909   Anisotropy =    37.5044

     11  O    Isotropic =   309.1639   Anisotropy =    22.7923

     12  H    Isotropic =    27.2790   Anisotropy =     5.9605

     13  H    Isotropic =    27.7135   Anisotropy =    11.2543

     14  H    Isotropic =    27.0478   Anisotropy =     7.9929

     15  H    Isotropic =    26.1746   Anisotropy =     7.5699

     16  H    Isotropic =    27.6688   Anisotropy =     6.6162

     17  H    Isotropic =    27.9177   Anisotropy =     5.4503

     18  H    Isotropic =    27.6795   Anisotropy =     5.1099

     19  H    Isotropic =    29.8854   Anisotropy =    19.1110

     20  H    Isotropic =    29.5251   Anisotropy =    21.2033

     21  H    Isotropic =    27.9334   Anisotropy =    15.7672

 The electronic state is 1-A.
 Alpha  occ. eigenvalues --  -19.27352 -19.27131 -19.26501 -19.26435 -19.25713
 Alpha  occ. eigenvalues --  -10.35250 -10.31913 -10.31652 -10.31620 -10.30875
 Alpha  occ. eigenvalues --  -10.30297  -1.13948  -1.08566  -1.07111  -1.05397
 Alpha  occ. eigenvalues --   -1.03555  -0.82128  -0.80518  -0.70261  -0.68556
 Alpha  occ. eigenvalues --   -0.64202  -0.61101  -0.57643  -0.55571  -0.54676
 Alpha  occ. eigenvalues --   -0.51842  -0.50046  -0.48561  -0.47334  -0.46230
 Alpha  occ. eigenvalues --   -0.43934  -0.43331  -0.42314  -0.40821  -0.37744
 Alpha  occ. eigenvalues --   -0.37450  -0.37032  -0.35905  -0.33244  -0.32948
 Alpha  occ. eigenvalues --   -0.30099  -0.29102  -0.26944
 Alpha virt. eigenvalues --    0.00284   0.01425   0.02040   0.02600   0.04174
 Alpha virt. eigenvalues --    0.04652   0.05032   0.05381   0.06097   0.08034
 Alpha virt. eigenvalues --    0.08738   0.08987   0.09970   0.10836   0.11657

 Mulliken atomic charges:
              1
     1  C   -0.171689
     2  C    0.335855
     3  C   -0.079403
     4  C    0.137848
     5  C    0.042811
     6  C   -0.300220
     7  O   -0.329362
     8  O   -0.386739
     9  O   -0.552671
    10  O   -0.635967
    11  O   -0.530388
    12  H    0.185906
    13  H    0.173140
    14  H    0.188026
    15  H    0.180006
    16  H    0.177997
    17  H    0.187580
    18  H    0.180773
    19  H    0.388823
    20  H    0.416698
    21  H    0.390976
 Sum of Mulliken atomic charges =   0.00000

 Dipole moment (field-independent basis, Debye):
    X=             -2.9506    Y=             -4.4410    Z=              4.1685  Tot=              6.7679
 Quadrupole moment (field-independent basis, Debye-Ang):
   XX=            -72.9308   YY=            -54.7252   ZZ=            -63.1706
   XY=              0.5709   XZ=             -4.1344   YZ=             -4.0831

 Normal termination of Gaussian 09 at Fri Apr 12 11:53:55 2019.
