 Gaussian 09, Revision C.01,
 Gaussian 09:  EM64L-G09RevC.01 23-Sep-2011

 ------------------------------------------------
 # mpw1pw91/6-31+g** nmr scrf=(pcm,solvent=water)
 ------------------------------------------------

 99/9=1/99;
 -------
 comment
 -------
 Charge =  0 Multiplicity = 1

                         Standard orientation:
 ---------------------------------------------------------------------
 Center     Atomic      Atomic             Coordinates (Angstroms)
 Number     Number       Type             X           Y           Z
 ---------------------------------------------------------------------
      1          6           0        1.744382   -0.920521   -0.884665
      2          6           0        0.668185   -1.374895    0.100479
      3          6           0        1.264575    0.674605    0.722949
      4          6           0       -1.213039    0.282357    0.438449
      5          6           0       -0.113163    1.365890    0.521695
      6          6           0       -0.754007   -0.963158   -0.342545
      7          8           0        1.070470   -0.612129    1.266483
      8          8           0        1.875384    0.483292   -0.566233
      9          8           0       -1.638843   -2.054764   -0.110679
     10          8           0       -2.403224    0.816333   -0.124255
     11          8           0       -0.125534    2.181336   -0.646331
     12          1           0        1.465663   -1.021431   -1.935569
     13          1           0        2.697169   -1.428172   -0.701750
     14          1           0        0.709526   -2.433332    0.359355
     15          1           0        1.943652    1.237870    1.365654
     16          1           0       -1.458852   -0.049169    1.451762
     17          1           0       -0.329033    2.022805    1.369666
     18          1           0       -0.748654   -0.716247   -1.415332
     19          1           0       -2.529532   -1.726446   -0.324101
     20          1           0       -2.092358    1.434831   -0.813787
     21          1           0        0.534802    1.781084   -1.245947
 ---------------------------------------------------------------------

 SCF Done:  E(RmPW1PW91) =  -610.647842779     A.U. after   12 cycles

      1  C    Isotropic =   125.6973   Anisotropy =    43.7989

      2  C    Isotropic =   115.4725   Anisotropy =    45.0571

      3  C    Isotropic =    96.5493   Anisotropy =    35.0171

      4  C    Isotropic =   123.2176   Anisotropy =    29.5960

      5  C    Isotropic =   126.8313   Anisotropy =    34.9604

      6  C    Isotropic =   118.5054   Anisotropy =    23.5962

      7  O    Isotropic =   245.5593   Anisotropy =    60.7284

      8  O    Isotropic =   276.0369   Anisotropy =    99.8362

      9  O    Isotropic =   294.8648   Anisotropy =    66.1113

     10  O    Isotropic =   316.8314   Anisotropy =    42.2272

     11  O    Isotropic =   319.8806   Anisotropy =    79.6462

     12  H    Isotropic =    27.6413   Anisotropy =     7.8053

     13  H    Isotropic =    27.8047   Anisotropy =    11.1879

     14  H    Isotropic =    27.1251   Anisotropy =     6.8024

     15  H    Isotropic =    25.9307   Anisotropy =     8.8942

     16  H    Isotropic =    28.1627   Anisotropy =     3.8017

     17  H    Isotropic =    27.6675   Anisotropy =     7.9774

     18  H    Isotropic =    28.1120   Anisotropy =     4.1345

     19  H    Isotropic =    29.3355   Anisotropy =    18.2840

     20  H    Isotropic =    28.7608   Anisotropy =    16.7924

     21  H    Isotropic =    28.8358   Anisotropy =    18.1772

 The electronic state is 1-A.
 Alpha  occ. eigenvalues --  -19.28347 -19.28180 -19.26852 -19.26335 -19.26164
 Alpha  occ. eigenvalues --  -10.36715 -10.32268 -10.31610 -10.31382 -10.31190
 Alpha  occ. eigenvalues --  -10.30965  -1.15055  -1.08657  -1.07298  -1.05408
 Alpha  occ. eigenvalues --   -1.04493  -0.82704  -0.80698  -0.70971  -0.68644
 Alpha  occ. eigenvalues --   -0.64983  -0.61005  -0.58353  -0.56328  -0.53669
 Alpha  occ. eigenvalues --   -0.52164  -0.50774  -0.49960  -0.48389  -0.46371
 Alpha  occ. eigenvalues --   -0.44062  -0.43843  -0.42155  -0.40401  -0.39398
 Alpha  occ. eigenvalues --   -0.37634  -0.37456  -0.36774  -0.33586  -0.32695
 Alpha  occ. eigenvalues --   -0.30932  -0.29646  -0.27892
 Alpha virt. eigenvalues --    0.00678   0.01401   0.02078   0.02469   0.04231
 Alpha virt. eigenvalues --    0.04319   0.04773   0.05293   0.05817   0.08168
 Alpha virt. eigenvalues --    0.09052   0.09280   0.09675   0.10399   0.11358

 Mulliken atomic charges:
              1
     1  C   -0.221362
     2  C    0.367927
     3  C   -0.119574
     4  C   -0.180731
     5  C    0.210761
     6  C   -0.149343
     7  O   -0.338042
     8  O   -0.435739
     9  O   -0.539181
    10  O   -0.537669
    11  O   -0.564652
    12  H    0.186683
    13  H    0.184620
    14  H    0.201867
    15  H    0.195068
    16  H    0.199033
    17  H    0.187151
    18  H    0.177043
    19  H    0.381589
    20  H    0.388263
    21  H    0.406290
 Sum of Mulliken atomic charges =   0.00000

 Dipole moment (field-independent basis, Debye):
    X=              1.9838    Y=             -0.6458    Z=             -1.7345  Tot=              2.7131
 Quadrupole moment (field-independent basis, Debye-Ang):
   XX=            -68.3670   YY=            -70.9376   ZZ=            -61.2702
   XY=             -1.4389   XZ=              0.8119   YZ=              5.1400

 Normal termination of Gaussian 09 at Fri Apr 12 11:41:29 2019.
