 Gaussian 09, Revision C.01,
 Gaussian 09:  EM64L-G09RevC.01 23-Sep-2011

 ------------------------------------------------
 # mpw1pw91/6-31+g** nmr scrf=(pcm,solvent=water)
 ------------------------------------------------

 99/9=1/99;
 -------
 comment
 -------
 Charge =  0 Multiplicity = 1

                         Standard orientation:
 ---------------------------------------------------------------------
 Center     Atomic      Atomic             Coordinates (Angstroms)
 Number     Number       Type             X           Y           Z
 ---------------------------------------------------------------------
      1          6           0       -0.691814    1.599452    0.985032
      2          6           0       -1.443391    0.637523    0.059346
      3          6           0        0.541668    0.976507   -0.873070
      4          6           0        0.311095   -1.195464    0.378483
      5          6           0        1.044126   -0.470296   -0.778723
      6          6           0       -1.201439   -0.848793    0.381855
      7          8           0       -0.827523    0.958153   -1.205429
      8          8           0        0.635079    1.625428    0.409569
      9          8           0       -1.806000   -1.688143   -0.598174
     10          8           0        0.912528   -0.895613    1.634787
     11          8           0        2.448684   -0.415022   -0.577398
     12          1           0       -0.627329    1.261252    2.021172
     13          1           0       -1.123645    2.604765    0.949855
     14          1           0       -2.510023    0.859787   -0.024206
     15          1           0        1.093618    1.559157   -1.615180
     16          1           0        0.388022   -2.280819    0.242944
     17          1           0        0.793743   -0.963793   -1.727828
     18          1           0       -1.590238   -1.069243    1.386643
     19          1           0       -2.761381   -1.514810   -0.597776
     20          1           0        1.310347   -0.011552    1.541444
     21          1           0        2.763267   -1.316752   -0.401451
 ---------------------------------------------------------------------

 SCF Done:  E(RmPW1PW91) =  -610.646031730     A.U. after   12 cycles

      1  C    Isotropic =   130.2256   Anisotropy =    61.6266

      2  C    Isotropic =   116.3003   Anisotropy =    44.5523

      3  C    Isotropic =    91.8828   Anisotropy =    29.9285

      4  C    Isotropic =   121.9196   Anisotropy =    44.2094

      5  C    Isotropic =   126.2822   Anisotropy =    46.9572

      6  C    Isotropic =   120.3866   Anisotropy =    42.1212

      7  O    Isotropic =   239.8875   Anisotropy =    64.3752

      8  O    Isotropic =   269.5322   Anisotropy =    98.6500

      9  O    Isotropic =   289.6358   Anisotropy =    81.7088

     10  O    Isotropic =   303.6135   Anisotropy =    37.7155

     11  O    Isotropic =   305.0105   Anisotropy =    92.5471

     12  H    Isotropic =    27.3451   Anisotropy =     6.7828

     13  H    Isotropic =    27.7311   Anisotropy =    11.4790

     14  H    Isotropic =    27.2077   Anisotropy =     7.8302

     15  H    Isotropic =    26.0214   Anisotropy =     7.4017

     16  H    Isotropic =    27.6682   Anisotropy =     6.1178

     17  H    Isotropic =    27.6130   Anisotropy =     4.9170

     18  H    Isotropic =    27.5619   Anisotropy =     5.3656

     19  H    Isotropic =    30.1430   Anisotropy =    19.2866

     20  H    Isotropic =    28.2270   Anisotropy =    14.9635

     21  H    Isotropic =    30.3627   Anisotropy =    19.9195

 The electronic state is 1-A.
 Alpha  occ. eigenvalues --  -19.27887 -19.27512 -19.26733 -19.26467 -19.25628
 Alpha  occ. eigenvalues --  -10.36101 -10.31994 -10.31589 -10.31479 -10.31415
 Alpha  occ. eigenvalues --  -10.30971  -1.14620  -1.08195  -1.07163  -1.05500
 Alpha  occ. eigenvalues --   -1.04099  -0.82493  -0.80839  -0.70731  -0.68725
 Alpha  occ. eigenvalues --   -0.65059  -0.61070  -0.57719  -0.55448  -0.54361
 Alpha  occ. eigenvalues --   -0.51919  -0.50781  -0.48447  -0.47026  -0.46643
 Alpha  occ. eigenvalues --   -0.45169  -0.44325  -0.42971  -0.40017  -0.39022
 Alpha  occ. eigenvalues --   -0.38394  -0.36862  -0.36432  -0.32566  -0.31636
 Alpha  occ. eigenvalues --   -0.29901  -0.29374  -0.28324
 Alpha virt. eigenvalues --    0.00564   0.01097   0.02093   0.03008   0.03954
 Alpha virt. eigenvalues --    0.04492   0.05000   0.05529   0.05650   0.08121
 Alpha virt. eigenvalues --    0.08691   0.09407   0.09764   0.10611   0.11568

 Mulliken atomic charges:
              1
     1  C   -0.179107
     2  C    0.275168
     3  C   -0.113100
     4  C   -0.076426
     5  C    0.176878
     6  C   -0.183462
     7  O   -0.328248
     8  O   -0.436368
     9  O   -0.551208
    10  O   -0.516831
    11  O   -0.550364
    12  H    0.190419
    13  H    0.182061
    14  H    0.188430
    15  H    0.186102
    16  H    0.181125
    17  H    0.187460
    18  H    0.182855
    19  H    0.386769
    20  H    0.407555
    21  H    0.390294
 Sum of Mulliken atomic charges =   0.00000

 Dipole moment (field-independent basis, Debye):
    X=             -3.4977    Y=             -0.2508    Z=              0.6229  Tot=              3.5616
 Quadrupole moment (field-independent basis, Debye-Ang):
   XX=            -57.0721   YY=            -65.6125   ZZ=            -68.7868
   XY=             -5.4041   XZ=             -5.9656   YZ=              3.6356

 Normal termination of Gaussian 09 at Fri Apr 12 11:48:35 2019.
