 Gaussian 09, Revision C.01,
 Gaussian 09:  EM64L-G09RevC.01 23-Sep-2011

 ------------------------------------------------
 # mpw1pw91/6-31+g** nmr scrf=(pcm,solvent=water)
 ------------------------------------------------

 99/9=1/99;
 -------
 comment
 -------
 Charge =  0 Multiplicity = 1

                         Standard orientation:
 ---------------------------------------------------------------------
 Center     Atomic      Atomic             Coordinates (Angstroms)
 Number     Number       Type             X           Y           Z
 ---------------------------------------------------------------------
      1          6           0       -0.505365    1.569950    1.095093
      2          6           0       -1.367731    0.743453    0.126111
      3          6           0        0.611065    1.002393   -0.830944
      4          6           0        0.196048   -1.261578    0.267124
      5          6           0        1.005914   -0.486236   -0.798665
      6          6           0       -1.267669   -0.776347    0.343497
      7          8           0       -0.766999    1.079629   -1.140385
      8          8           0        0.773600    1.634034    0.432022
      9          8           0       -1.983147   -1.486227   -0.663237
     10          8           0        0.779445   -1.108064    1.555863
     11          8           0        2.377495   -0.690139   -0.469366
     12          1           0       -0.387335    1.104136    2.074851
     13          1           0       -0.898763    2.585794    1.208422
     14          1           0       -2.411068    1.067689    0.095753
     15          1           0        1.178574    1.559166   -1.584639
     16          1           0        0.179803   -2.325597   -0.010346
     17          1           0        0.775248   -0.898459   -1.790238
     18          1           0       -1.646622   -1.024654    1.345888
     19          1           0       -2.913528   -1.212058   -0.620613
     20          1           0        1.719036   -0.907539    1.390794
     21          1           0        2.927937   -0.132167   -1.042348
 ---------------------------------------------------------------------

 SCF Done:  E(RmPW1PW91) =  -610.646572733     A.U. after   12 cycles

      1  C    Isotropic =   130.0431   Anisotropy =    64.1848

      2  C    Isotropic =   116.9197   Anisotropy =    44.7190

      3  C    Isotropic =    92.7342   Anisotropy =    25.8473

      4  C    Isotropic =   124.2591   Anisotropy =    46.8810

      5  C    Isotropic =   126.0464   Anisotropy =    42.6150

      6  C    Isotropic =   122.0195   Anisotropy =    44.9925

      7  O    Isotropic =   240.1669   Anisotropy =    57.3382

      8  O    Isotropic =   273.7904   Anisotropy =    96.3628

      9  O    Isotropic =   290.2889   Anisotropy =    82.8079

     10  O    Isotropic =   312.9425   Anisotropy =    39.0812

     11  O    Isotropic =   304.8365   Anisotropy =    58.1431

     12  H    Isotropic =    27.1965   Anisotropy =     6.0171

     13  H    Isotropic =    27.7343   Anisotropy =    11.2399

     14  H    Isotropic =    27.2428   Anisotropy =     7.8620

     15  H    Isotropic =    26.2263   Anisotropy =     7.6133

     16  H    Isotropic =    27.3985   Anisotropy =     7.1034

     17  H    Isotropic =    27.7243   Anisotropy =     5.2573

     18  H    Isotropic =    27.5949   Anisotropy =     5.2556

     19  H    Isotropic =    30.1861   Anisotropy =    19.1672

     20  H    Isotropic =    28.1205   Anisotropy =    16.8682

     21  H    Isotropic =    29.6954   Anisotropy =    19.7048

 The electronic state is 1-A.
 Alpha  occ. eigenvalues --  -19.27619 -19.27474 -19.26635 -19.26373 -19.25355
 Alpha  occ. eigenvalues --  -10.35841 -10.31730 -10.31522 -10.31504 -10.31367
 Alpha  occ. eigenvalues --  -10.30379  -1.14257  -1.08671  -1.07141  -1.05270
 Alpha  occ. eigenvalues --   -1.03801  -0.82106  -0.80797  -0.70711  -0.68256
 Alpha  occ. eigenvalues --   -0.65321  -0.59961  -0.57054  -0.55774  -0.55601
 Alpha  occ. eigenvalues --   -0.51632  -0.51450  -0.47721  -0.46818  -0.45824
 Alpha  occ. eigenvalues --   -0.44434  -0.44195  -0.42294  -0.40944  -0.39563
 Alpha  occ. eigenvalues --   -0.37734  -0.36477  -0.35116  -0.33370  -0.31584
 Alpha  occ. eigenvalues --   -0.30578  -0.29070  -0.27266
 Alpha virt. eigenvalues --    0.00529   0.01017   0.02361   0.02973   0.03894
 Alpha virt. eigenvalues --    0.04398   0.04882   0.05485   0.05968   0.08419
 Alpha virt. eigenvalues --    0.08659   0.09434   0.09623   0.10917   0.11658

 Mulliken atomic charges:
              1
     1  C   -0.203391
     2  C    0.309495
     3  C   -0.209705
     4  C    0.021397
     5  C    0.195699
     6  C   -0.189686
     7  O   -0.321247
     8  O   -0.366746
     9  O   -0.555309
    10  O   -0.544856
    11  O   -0.580603
    12  H    0.189768
    13  H    0.173858
    14  H    0.186551
    15  H    0.184101
    16  H    0.169418
    17  H    0.185730
    18  H    0.179671
    19  H    0.385793
    20  H    0.394865
    21  H    0.395197
 Sum of Mulliken atomic charges =   0.00000

 Dipole moment (field-independent basis, Debye):
    X=             -1.5384    Y=              1.6430    Z=             -0.8256  Tot=              2.3975
 Quadrupole moment (field-independent basis, Debye-Ang):
   XX=            -51.3609   YY=            -71.2411   ZZ=            -66.3570
   XY=             -0.1673   XZ=             -9.9749   YZ=              1.4933

 Normal termination of Gaussian 09 at Fri Apr 12 11:47:03 2019.
