 Gaussian 09, Revision C.01,
 Gaussian 09:  EM64L-G09RevC.01 23-Sep-2011

 ------------------------------------------------
 # mpw1pw91/6-31+g** nmr scrf=(pcm,solvent=water)
 ------------------------------------------------

 99/9=1/99;
 -------
 comment
 -------
 Charge =  0 Multiplicity = 1

                         Standard orientation:
 ---------------------------------------------------------------------
 Center     Atomic      Atomic             Coordinates (Angstroms)
 Number     Number       Type             X           Y           Z
 ---------------------------------------------------------------------
      1          6           0       -0.876289    1.585961    0.923185
      2          6           0       -1.517683    0.475102    0.100258
      3          6           0        0.406449    0.977910   -0.917307
      4          6           0        0.456607   -1.139016    0.414352
      5          6           0        1.082019   -0.399345   -0.793267
      6          6           0       -1.087634   -0.957701    0.456519
      7          8           0       -0.967459    0.775424   -1.207010
      8          8           0        0.449757    1.675908    0.349088
      9          8           0       -1.709844   -1.864005   -0.451954
     10          8           0        1.106594   -0.702623    1.616180
     11          8           0        2.488475   -0.305460   -0.663020
     12          1           0       -0.793253    1.370766    1.991242
     13          1           0       -1.404448    2.534224    0.782704
     14          1           0       -2.604326    0.545427    0.030393
     15          1           0        0.853289    1.604660   -1.692706
     16          1           0        0.658205   -2.211319    0.347394
     17          1           0        0.869488   -0.943132   -1.721041
     18          1           0       -1.439465   -1.227354    1.457407
     19          1           0       -1.609468   -1.480634   -1.340824
     20          1           0        1.082244    0.273566    1.602193
     21          1           0        2.666743   -0.357621    0.294513
 ---------------------------------------------------------------------

 SCF Done:  E(RmPW1PW91) =  -610.648775644     A.U. after   12 cycles

      1  C    Isotropic =   129.7699   Anisotropy =    58.9502

      2  C    Isotropic =   116.5871   Anisotropy =    41.4584

      3  C    Isotropic =    89.7494   Anisotropy =    26.3075

      4  C    Isotropic =   120.1334   Anisotropy =    45.1315

      5  C    Isotropic =   128.0113   Anisotropy =    47.4942

      6  C    Isotropic =   122.4076   Anisotropy =    41.0524

      7  O    Isotropic =   241.2025   Anisotropy =    60.3977

      8  O    Isotropic =   271.0173   Anisotropy =    98.2452

      9  O    Isotropic =   287.5601   Anisotropy =    36.0489

     10  O    Isotropic =   301.9037   Anisotropy =    57.2533

     11  O    Isotropic =   309.5757   Anisotropy =    34.3126

     12  H    Isotropic =    27.4561   Anisotropy =     7.4103

     13  H    Isotropic =    27.6443   Anisotropy =    11.4721

     14  H    Isotropic =    27.0640   Anisotropy =     8.1403

     15  H    Isotropic =    26.0751   Anisotropy =     7.4012

     16  H    Isotropic =    27.6648   Anisotropy =     6.6239

     17  H    Isotropic =    27.9242   Anisotropy =     5.1620

     18  H    Isotropic =    27.6528   Anisotropy =     5.9116

     19  H    Isotropic =    29.2514   Anisotropy =    13.5160

     20  H    Isotropic =    28.4330   Anisotropy =    17.9877

     21  H    Isotropic =    28.3002   Anisotropy =    15.7824

 The electronic state is 1-A.
 Alpha  occ. eigenvalues --  -19.28703 -19.28269 -19.26966 -19.26685 -19.26353
 Alpha  occ. eigenvalues --  -10.36388 -10.32463 -10.32007 -10.31910 -10.31614
 Alpha  occ. eigenvalues --  -10.31553  -1.15071  -1.08848  -1.07520  -1.05738
 Alpha  occ. eigenvalues --   -1.04550  -0.82884  -0.80953  -0.71080  -0.69132
 Alpha  occ. eigenvalues --   -0.65682  -0.62071  -0.59174  -0.54788  -0.54250
 Alpha  occ. eigenvalues --   -0.51660  -0.51354  -0.49739  -0.47827  -0.46954
 Alpha  occ. eigenvalues --   -0.45664  -0.43693  -0.43051  -0.40832  -0.39514
 Alpha  occ. eigenvalues --   -0.38002  -0.37698  -0.35693  -0.34773  -0.33537
 Alpha  occ. eigenvalues --   -0.31598  -0.29285  -0.27864
 Alpha virt. eigenvalues --    0.00669   0.01394   0.02137   0.02911   0.04052
 Alpha virt. eigenvalues --    0.04737   0.05073   0.05279   0.05429   0.07705
 Alpha virt. eigenvalues --    0.08701   0.09311   0.09859   0.10712   0.11225

 Mulliken atomic charges:
              1
     1  C   -0.189849
     2  C    0.281665
     3  C    0.023760
     4  C    0.059386
     5  C   -0.039096
     6  C   -0.262362
     7  O   -0.375511
     8  O   -0.455276
     9  O   -0.504489
    10  O   -0.559603
    11  O   -0.516227
    12  H    0.192784
    13  H    0.189972
    14  H    0.203843
    15  H    0.190858
    16  H    0.195264
    17  H    0.192385
    18  H    0.194866
    19  H    0.379989
    20  H    0.414828
    21  H    0.382814
 Sum of Mulliken atomic charges =   0.00000

 Dipole moment (field-independent basis, Debye):
    X=             -2.7150    Y=              1.9751    Z=              0.8515  Tot=              3.4637
 Quadrupole moment (field-independent basis, Debye-Ang):
   XX=            -70.3797   YY=            -69.2203   ZZ=            -63.3260
   XY=             -4.4650   XZ=             -1.4085   YZ=              3.9190

 Normal termination of Gaussian 09 at Fri Apr 12 11:48:17 2019.
