 Gaussian 09, Revision C.01,
 Gaussian 09:  EM64L-G09RevC.01 23-Sep-2011

 -----------------------------------------------------------
 # B3LYP/6-31+G** test scrf=(pcm,solvent=water,smd,dovacuum)
 -----------------------------------------------------------

 99/5=1,9=1/99;
 -------
 comment
 -------
 Charge =  0 Multiplicity = 1

                         Standard orientation:
 ---------------------------------------------------------------------
 Center     Atomic      Atomic             Coordinates (Angstroms)
 Number     Number       Type             X           Y           Z
 ---------------------------------------------------------------------
      1          6           0       -0.505365    1.569950    1.095093
      2          6           0       -1.367731    0.743453    0.126111
      3          6           0        0.611065    1.002393   -0.830944
      4          6           0        0.196048   -1.261578    0.267124
      5          6           0        1.005914   -0.486236   -0.798665
      6          6           0       -1.267669   -0.776347    0.343497
      7          8           0       -0.766999    1.079629   -1.140385
      8          8           0        0.773600    1.634034    0.432022
      9          8           0       -1.983147   -1.486227   -0.663237
     10          8           0        0.779445   -1.108064    1.555863
     11          8           0        2.377495   -0.690139   -0.469366
     12          1           0       -0.387335    1.104136    2.074851
     13          1           0       -0.898763    2.585794    1.208422
     14          1           0       -2.411068    1.067689    0.095753
     15          1           0        1.178574    1.559166   -1.584639
     16          1           0        0.179803   -2.325597   -0.010346
     17          1           0        0.775248   -0.898459   -1.790238
     18          1           0       -1.646622   -1.024654    1.345888
     19          1           0       -2.913528   -1.212058   -0.620613
     20          1           0        1.719036   -0.907539    1.390794
     21          1           0        2.927937   -0.132167   -1.042348
 ---------------------------------------------------------------------

 SCF Done:  E(RB3LYP) =  -610.805512287     A.U. after   12 cycles

 The electronic state is 1-A.
 Alpha  occ. eigenvalues --  -19.18280 -19.17749 -19.17408 -19.16982 -19.16298
 Alpha  occ. eigenvalues --  -10.29292 -10.24933 -10.24797 -10.24783 -10.24724
 Alpha  occ. eigenvalues --  -10.23808  -1.11166  -1.05419  -1.03959  -1.02296
 Alpha  occ. eigenvalues --   -1.01025  -0.79196  -0.77968  -0.68070  -0.65713
 Alpha  occ. eigenvalues --   -0.62927  -0.57828  -0.54829  -0.53704  -0.53404
 Alpha  occ. eigenvalues --   -0.49625  -0.49433  -0.45886  -0.44963  -0.44018
 Alpha  occ. eigenvalues --   -0.42614  -0.42421  -0.40629  -0.39134  -0.38159
 Alpha  occ. eigenvalues --   -0.36479  -0.35008  -0.33603  -0.31769  -0.30121
 Alpha  occ. eigenvalues --   -0.29304  -0.27738  -0.25996
 Alpha virt. eigenvalues --    0.00607   0.01144   0.02464   0.03112   0.04115
 Alpha virt. eigenvalues --    0.04557   0.05043   0.05613   0.06092   0.08472
 Alpha virt. eigenvalues --    0.08774   0.09559   0.09891   0.11002   0.11879

 Mulliken atomic charges:
              1
     1  C   -0.153907
     2  C    0.326099
     3  C   -0.066808
     4  C    0.053685
     5  C    0.220898
     6  C   -0.084256
     7  O   -0.402267
     8  O   -0.446059
     9  O   -0.626060
    10  O   -0.608544
    11  O   -0.637677
    12  H    0.176407
    13  H    0.163361
    14  H    0.175113
    15  H    0.171139
    16  H    0.153368
    17  H    0.175564
    18  H    0.167828
    19  H    0.412263
    20  H    0.409996
    21  H    0.419858
 Sum of Mulliken atomic charges =   0.00000

 Dipole moment (field-independent basis, Debye):
    X=             -1.7622    Y=              1.7920    Z=             -0.9389  Tot=              2.6829
 Quadrupole moment (field-independent basis, Debye-Ang):
   XX=            -50.8548   YY=            -72.3733   ZZ=            -67.1173
   XY=             -0.2425   XZ=            -11.0411   YZ=              1.5963

 Normal termination of Gaussian 09 at Mon Apr 15 18:35:22 2019.
