 Gaussian 09, Revision C.01,
 Gaussian 09:  EM64L-G09RevC.01 23-Sep-2011

 -----------------------------------------------------------
 # B3LYP/6-31+G** test scrf=(pcm,solvent=water,smd,dovacuum)
 -----------------------------------------------------------

 99/5=1,9=1/99;
 -------
 comment
 -------
 Charge =  0 Multiplicity = 1

                         Standard orientation:
 ---------------------------------------------------------------------
 Center     Atomic      Atomic             Coordinates (Angstroms)
 Number     Number       Type             X           Y           Z
 ---------------------------------------------------------------------
      1          6           0       -1.752873    0.841501   -0.921932
      2          6           0       -0.685339    1.340100    0.064277
      3          6           0       -1.287672   -0.686100    0.726278
      4          6           0        1.196327   -0.273617    0.431708
      5          6           0        0.098711   -1.361466    0.473441
      6          6           0        0.754136    0.963753   -0.352187
      7          8           0       -1.063872    0.613059    1.254942
      8          8           0       -2.028087   -0.494324   -0.467623
      9          8           0        1.609415    2.071132   -0.084133
     10          8           0        2.376875   -0.775493   -0.208966
     11          8           0        0.084593   -2.095666   -0.738208
     12          1           0       -1.408338    0.819409   -1.960013
     13          1           0       -2.668677    1.439317   -0.857206
     14          1           0       -0.749216    2.406899    0.282295
     15          1           0       -1.898191   -1.251212    1.433544
     16          1           0        1.423434    0.047450    1.452870
     17          1           0        0.309955   -2.029778    1.323414
     18          1           0        0.782653    0.721544   -1.424197
     19          1           0        2.511874    1.773021   -0.290170
     20          1           0        2.899706   -1.259055    0.451261
     21          1           0        1.025660   -2.162284   -0.989396
 ---------------------------------------------------------------------

 SCF Done:  E(RB3LYP) =  -610.801429087     A.U. after   12 cycles

 The electronic state is 1-A.
 Alpha  occ. eigenvalues --  -19.18343 -19.17686 -19.17480 -19.16936 -19.16589
 Alpha  occ. eigenvalues --  -10.29534 -10.25147 -10.24565 -10.24541 -10.24454
 Alpha  occ. eigenvalues --  -10.23889  -1.11182  -1.05523  -1.03795  -1.02188
 Alpha  occ. eigenvalues --   -1.01138  -0.79339  -0.77853  -0.67759  -0.66187
 Alpha  occ. eigenvalues --   -0.61882  -0.57470  -0.55450  -0.54334  -0.51889
 Alpha  occ. eigenvalues --   -0.50140  -0.48589  -0.46768  -0.46257  -0.45132
 Alpha  occ. eigenvalues --   -0.42932  -0.40882  -0.40494  -0.38718  -0.36555
 Alpha  occ. eigenvalues --   -0.35898  -0.35152  -0.34898  -0.31703  -0.30326
 Alpha  occ. eigenvalues --   -0.28975  -0.27532  -0.26755
 Alpha virt. eigenvalues --    0.00392   0.01415   0.02179   0.02633   0.04176
 Alpha virt. eigenvalues --    0.04652   0.04975   0.05424   0.06160   0.08329
 Alpha virt. eigenvalues --    0.08904   0.09492   0.09895   0.10545   0.11730

 Mulliken atomic charges:
              1
     1  C   -0.200569
     2  C    0.383367
     3  C   -0.015009
     4  C   -0.074294
     5  C    0.302068
     6  C   -0.079123
     7  O   -0.426015
     8  O   -0.438297
     9  O   -0.619416
    10  O   -0.663471
    11  O   -0.608447
    12  H    0.167440
    13  H    0.165286
    14  H    0.182829
    15  H    0.172754
    16  H    0.184234
    17  H    0.155665
    18  H    0.168958
    19  H    0.403576
    20  H    0.425995
    21  H    0.412471
 Sum of Mulliken atomic charges =   0.00000

 Dipole moment (field-independent basis, Debye):
    X=              3.9564    Y=             -0.3539    Z=              1.3529  Tot=              4.1963
 Quadrupole moment (field-independent basis, Debye-Ang):
   XX=            -59.6107   YY=            -69.5902   ZZ=            -64.7949
   XY=            -10.4578   XZ=              2.6059   YZ=            -10.3036

 Normal termination of Gaussian 09 at Mon Apr 15 18:29:41 2019.
