 Gaussian 09, Revision C.01,
 Gaussian 09:  EM64L-G09RevC.01 23-Sep-2011

 -----------------------------------------------------------
 # B3LYP/6-31+G** test scrf=(pcm,solvent=water,smd,dovacuum)
 -----------------------------------------------------------

 99/5=1,9=1/99;
 -------
 comment
 -------
 Charge =  0 Multiplicity = 1

                         Standard orientation:
 ---------------------------------------------------------------------
 Center     Atomic      Atomic             Coordinates (Angstroms)
 Number     Number       Type             X           Y           Z
 ---------------------------------------------------------------------
      1          6           0        1.657956   -0.904680   -0.956909
      2          6           0        0.566778   -1.375951    0.027220
      3          6           0        1.334916    0.563701    0.763774
      4          6           0       -1.169257    0.381754    0.450699
      5          6           0        0.017997    1.357216    0.461671
      6          6           0       -0.854224   -0.882885   -0.351786
      7          8           0        0.995195   -0.727770    1.246446
      8          8           0        2.113070    0.338066   -0.395629
      9          8           0       -1.888407   -1.813672   -0.028193
     10          8           0       -2.286641    1.083215   -0.088631
     11          8           0        0.124108    2.025194   -0.786341
     12          1           0        1.278913   -0.744936   -1.971215
     13          1           0        2.500171   -1.603241   -0.993005
     14          1           0        0.570390   -2.453477    0.199974
     15          1           0        1.953948    1.065117    1.509738
     16          1           0       -1.376485    0.068076    1.481413
     17          1           0       -0.142182    2.085371    1.271046
     18          1           0       -0.891818   -0.642457   -1.421873
     19          1           0       -1.909562   -2.495609   -0.718375
     20          1           0       -2.970254    0.416916   -0.273426
     21          1           0       -0.796726    2.229043   -1.033513
 ---------------------------------------------------------------------

 SCF Done:  E(RB3LYP) =  -610.800453376     A.U. after   12 cycles

 The electronic state is 1-A.
 Alpha  occ. eigenvalues --  -19.18257 -19.17535 -19.17320 -19.17123 -19.16704
 Alpha  occ. eigenvalues --  -10.29586 -10.25027 -10.24649 -10.24591 -10.24488
 Alpha  occ. eigenvalues --  -10.23898  -1.11219  -1.05563  -1.03794  -1.02214
 Alpha  occ. eigenvalues --   -1.01162  -0.79137  -0.77992  -0.67976  -0.65922
 Alpha  occ. eigenvalues --   -0.62102  -0.57787  -0.55337  -0.53842  -0.52393
 Alpha  occ. eigenvalues --   -0.50335  -0.48358  -0.46791  -0.45881  -0.44402
 Alpha  occ. eigenvalues --   -0.43087  -0.42402  -0.39506  -0.38665  -0.37170
 Alpha  occ. eigenvalues --   -0.36064  -0.35333  -0.34316  -0.31790  -0.30089
 Alpha  occ. eigenvalues --   -0.28800  -0.27643  -0.26905
 Alpha virt. eigenvalues --    0.00623   0.01273   0.01901   0.02795   0.04171
 Alpha virt. eigenvalues --    0.04661   0.04949   0.05482   0.06094   0.08239
 Alpha virt. eigenvalues --    0.08801   0.09553   0.09980   0.10455   0.11645

 Mulliken atomic charges:
              1
     1  C   -0.201723
     2  C    0.423011
     3  C   -0.020290
     4  C   -0.004408
     5  C    0.270030
     6  C   -0.143647
     7  O   -0.427682
     8  O   -0.430055
     9  O   -0.637984
    10  O   -0.644458
    11  O   -0.619453
    12  H    0.165683
    13  H    0.166423
    14  H    0.180093
    15  H    0.174281
    16  H    0.173370
    17  H    0.157336
    18  H    0.178743
    19  H    0.416159
    20  H    0.412143
    21  H    0.412428
 Sum of Mulliken atomic charges =   0.00000

 Dipole moment (field-independent basis, Debye):
    X=             -2.4752    Y=             -4.0556    Z=             -1.9340  Tot=              5.1298
 Quadrupole moment (field-independent basis, Debye-Ang):
   XX=            -68.9842   YY=            -62.2738   ZZ=            -63.5040
   XY=             -1.4942   XZ=              5.6650   YZ=             12.0173

 Normal termination of Gaussian 09 at Mon Apr 15 18:36:46 2019.
