 Gaussian 09, Revision C.01,
 Gaussian 09:  EM64L-G09RevC.01 23-Sep-2011

 -----------------------------------------------------------
 # B3LYP/6-31+G** test scrf=(pcm,solvent=water,smd,dovacuum)
 -----------------------------------------------------------

 99/5=1,9=1/99;
 -------
 comment
 -------
 Charge =  0 Multiplicity = 1

                         Standard orientation:
 ---------------------------------------------------------------------
 Center     Atomic      Atomic             Coordinates (Angstroms)
 Number     Number       Type             X           Y           Z
 ---------------------------------------------------------------------
      1          6           0       -0.691814    1.599452    0.985032
      2          6           0       -1.443391    0.637523    0.059346
      3          6           0        0.541668    0.976507   -0.873070
      4          6           0        0.311095   -1.195464    0.378483
      5          6           0        1.044126   -0.470296   -0.778723
      6          6           0       -1.201439   -0.848793    0.381855
      7          8           0       -0.827523    0.958153   -1.205429
      8          8           0        0.635079    1.625428    0.409569
      9          8           0       -1.806000   -1.688143   -0.598174
     10          8           0        0.912528   -0.895613    1.634787
     11          8           0        2.448684   -0.415022   -0.577398
     12          1           0       -0.627329    1.261252    2.021172
     13          1           0       -1.123645    2.604765    0.949855
     14          1           0       -2.510023    0.859787   -0.024206
     15          1           0        1.093618    1.559157   -1.615180
     16          1           0        0.388022   -2.280819    0.242944
     17          1           0        0.793743   -0.963793   -1.727828
     18          1           0       -1.590238   -1.069243    1.386643
     19          1           0       -2.761381   -1.514810   -0.597776
     20          1           0        1.310347   -0.011552    1.541444
     21          1           0        2.763267   -1.316752   -0.401451
 ---------------------------------------------------------------------

 SCF Done:  E(RB3LYP) =  -610.804815811     A.U. after   12 cycles

 The electronic state is 1-A.
 Alpha  occ. eigenvalues --  -19.18453 -19.17931 -19.17279 -19.17013 -19.16506
 Alpha  occ. eigenvalues --  -10.29512 -10.25072 -10.24790 -10.24762 -10.24736
 Alpha  occ. eigenvalues --  -10.24120  -1.11362  -1.05081  -1.03926  -1.02528
 Alpha  occ. eigenvalues --   -1.01107  -0.79457  -0.77977  -0.68015  -0.66084
 Alpha  occ. eigenvalues --   -0.62573  -0.58791  -0.55506  -0.53285  -0.52152
 Alpha  occ. eigenvalues --   -0.49818  -0.48834  -0.46510  -0.44984  -0.44687
 Alpha  occ. eigenvalues --   -0.43190  -0.42556  -0.41117  -0.38449  -0.37680
 Alpha  occ. eigenvalues --   -0.36733  -0.35435  -0.34763  -0.31045  -0.30200
 Alpha  occ. eigenvalues --   -0.28498  -0.27858  -0.26905
 Alpha virt. eigenvalues --    0.00648   0.01234   0.02240   0.03193   0.04105
 Alpha virt. eigenvalues --    0.04655   0.05190   0.05658   0.05839   0.08218
 Alpha virt. eigenvalues --    0.08812   0.09512   0.10007   0.10736   0.11811

 Mulliken atomic charges:
              1
     1  C   -0.142573
     2  C    0.307449
     3  C    0.001220
     4  C   -0.029775
     5  C    0.221653
     6  C   -0.086198
     7  O   -0.410304
     8  O   -0.499564
     9  O   -0.622617
    10  O   -0.579724
    11  O   -0.615315
    12  H    0.182469
    13  H    0.168752
    14  H    0.175914
    15  H    0.171127
    16  H    0.163051
    17  H    0.177633
    18  H    0.169884
    19  H    0.413048
    20  H    0.420082
    21  H    0.413787
 Sum of Mulliken atomic charges =   0.00000

 Dipole moment (field-independent basis, Debye):
    X=             -3.8827    Y=             -0.3507    Z=              0.7519  Tot=              3.9703
 Quadrupole moment (field-independent basis, Debye-Ang):
   XX=            -57.1057   YY=            -66.5045   ZZ=            -69.7109
   XY=             -5.9196   XZ=             -6.6221   YZ=              3.9495

 Normal termination of Gaussian 09 at Mon Apr 15 18:32:23 2019.
