 Gaussian 09, Revision C.01,
 Gaussian 09:  EM64L-G09RevC.01 23-Sep-2011

 -----------------------------------------------------------
 # B3LYP/6-31+G** test scrf=(pcm,solvent=water,smd,dovacuum)
 -----------------------------------------------------------

 99/5=1,9=1/99;
 -------
 comment
 -------
 Charge =  0 Multiplicity = 1

                         Standard orientation:
 ---------------------------------------------------------------------
 Center     Atomic      Atomic             Coordinates (Angstroms)
 Number     Number       Type             X           Y           Z
 ---------------------------------------------------------------------
      1          6           0        1.645681   -1.099537   -0.854156
      2          6           0        0.501505   -1.420175    0.109793
      3          6           0        1.320151    0.543583    0.745167
      4          6           0       -1.166373    0.445690    0.408002
      5          6           0        0.044999    1.399904    0.449274
      6          6           0       -0.865659   -0.848888   -0.355712
      7          8           0        0.961671   -0.707563    1.285944
      8          8           0        1.981451    0.260946   -0.502345
      9          8           0       -1.961999   -1.721664   -0.075467
     10          8           0       -2.292735    1.114258   -0.136144
     11          8           0        0.216995    2.160926   -0.733102
     12          1           0        1.365699   -1.138355   -1.909519
     13          1           0        2.513095   -1.743984   -0.678283
     14          1           0        0.420220   -2.476144    0.371008
     15          1           0        2.023487    1.037875    1.417425
     16          1           0       -1.367761    0.145846    1.446884
     17          1           0       -0.113938    2.111234    1.266957
     18          1           0       -0.835160   -0.628086   -1.430772
     19          1           0       -2.004666   -2.393048   -0.774757
     20          1           0       -2.994749    0.441804   -0.170365
     21          1           0        0.868882    1.664171   -1.263870
 ---------------------------------------------------------------------

 SCF Done:  E(RB3LYP) =  -610.802566349     A.U. after   12 cycles

 The electronic state is 1-A.
 Alpha  occ. eigenvalues --  -19.18624 -19.18209 -19.17126 -19.16816 -19.16530
 Alpha  occ. eigenvalues --  -10.29846 -10.25160 -10.24641 -10.24592 -10.24218
 Alpha  occ. eigenvalues --  -10.24138  -1.11462  -1.05062  -1.03876  -1.02351
 Alpha  occ. eigenvalues --   -1.01149  -0.79308  -0.77912  -0.68230  -0.65519
 Alpha  occ. eigenvalues --   -0.62442  -0.57192  -0.55576  -0.55048  -0.52647
 Alpha  occ. eigenvalues --   -0.49876  -0.48525  -0.46172  -0.45676  -0.44162
 Alpha  occ. eigenvalues --   -0.43217  -0.42038  -0.39955  -0.38513  -0.37309
 Alpha  occ. eigenvalues --   -0.36731  -0.35226  -0.34560  -0.31907  -0.29886
 Alpha  occ. eigenvalues --   -0.29558  -0.27367  -0.26850
 Alpha virt. eigenvalues --    0.00766   0.01312   0.02003   0.02684   0.04191
 Alpha virt. eigenvalues --    0.04432   0.04998   0.05365   0.06310   0.08249
 Alpha virt. eigenvalues --    0.09111   0.09504   0.09874   0.10600   0.11692

 Mulliken atomic charges:
              1
     1  C   -0.197632
     2  C    0.429916
     3  C    0.019017
     4  C    0.038111
     5  C    0.193688
     6  C   -0.171131
     7  O   -0.428891
     8  O   -0.491762
     9  O   -0.643716
    10  O   -0.615699
    11  O   -0.593570
    12  H    0.175408
    13  H    0.168352
    14  H    0.182909
    15  H    0.178424
    16  H    0.169173
    17  H    0.166517
    18  H    0.181165
    19  H    0.415939
    20  H    0.407930
    21  H    0.415852
 Sum of Mulliken atomic charges =   0.00000

 Dipole moment (field-independent basis, Debye):
    X=              1.2336    Y=             -6.1034    Z=             -1.7781  Tot=              6.4757
 Quadrupole moment (field-independent basis, Debye-Ang):
   XX=            -67.7206   YY=            -67.9247   ZZ=            -62.5673
   XY=              4.7761   XZ=              1.1155   YZ=             12.7831

 Normal termination of Gaussian 09 at Mon Apr 15 18:41:30 2019.
