 Gaussian 09, Revision C.01,
 Gaussian 09:  EM64L-G09RevC.01 23-Sep-2011

 -----------------------------------------------------------
 # B3LYP/6-31+G** test scrf=(pcm,solvent=water,smd,dovacuum)
 -----------------------------------------------------------

 99/5=1,9=1/99;
 -------
 comment
 -------
 Charge =  0 Multiplicity = 1

                         Standard orientation:
 ---------------------------------------------------------------------
 Center     Atomic      Atomic             Coordinates (Angstroms)
 Number     Number       Type             X           Y           Z
 ---------------------------------------------------------------------
      1          6           0        1.744382   -0.920521   -0.884665
      2          6           0        0.668185   -1.374895    0.100479
      3          6           0        1.264575    0.674605    0.722949
      4          6           0       -1.213039    0.282357    0.438449
      5          6           0       -0.113163    1.365890    0.521695
      6          6           0       -0.754007   -0.963158   -0.342545
      7          8           0        1.070470   -0.612129    1.266483
      8          8           0        1.875384    0.483292   -0.566233
      9          8           0       -1.638843   -2.054764   -0.110679
     10          8           0       -2.403224    0.816333   -0.124255
     11          8           0       -0.125534    2.181336   -0.646331
     12          1           0        1.465663   -1.021431   -1.935569
     13          1           0        2.697169   -1.428172   -0.701750
     14          1           0        0.709526   -2.433332    0.359355
     15          1           0        1.943652    1.237870    1.365654
     16          1           0       -1.458852   -0.049169    1.451762
     17          1           0       -0.329033    2.022805    1.369666
     18          1           0       -0.748654   -0.716247   -1.415332
     19          1           0       -2.529532   -1.726446   -0.324101
     20          1           0       -2.092358    1.434831   -0.813787
     21          1           0        0.534802    1.781084   -1.245947
 ---------------------------------------------------------------------

 SCF Done:  E(RB3LYP) =  -610.804814713     A.U. after   12 cycles

 The electronic state is 1-A.
 Alpha  occ. eigenvalues --  -19.18693 -19.18260 -19.17205 -19.16915 -19.16785
 Alpha  occ. eigenvalues --  -10.29910 -10.25292 -10.24741 -10.24418 -10.24169
 Alpha  occ. eigenvalues --  -10.24143  -1.11524  -1.05347  -1.04016  -1.02242
 Alpha  occ. eigenvalues --   -1.01211  -0.79501  -0.77622  -0.68053  -0.65894
 Alpha  occ. eigenvalues --   -0.62329  -0.58524  -0.55950  -0.53954  -0.51402
 Alpha  occ. eigenvalues --   -0.49972  -0.48513  -0.47824  -0.46130  -0.44228
 Alpha  occ. eigenvalues --   -0.42059  -0.41814  -0.40328  -0.38549  -0.37738
 Alpha  occ. eigenvalues --   -0.35850  -0.35807  -0.34950  -0.31951  -0.30943
 Alpha  occ. eigenvalues --   -0.29149  -0.28027  -0.26318
 Alpha virt. eigenvalues --    0.00735   0.01521   0.02248   0.02650   0.04388
 Alpha virt. eigenvalues --    0.04528   0.04961   0.05474   0.05948   0.08344
 Alpha virt. eigenvalues --    0.09279   0.09436   0.09872   0.10658   0.11670

 Mulliken atomic charges:
              1
     1  C   -0.184163
     2  C    0.372613
     3  C    0.010868
     4  C   -0.044127
     5  C    0.189192
     6  C   -0.060294
     7  O   -0.421093
     8  O   -0.487633
     9  O   -0.615420
    10  O   -0.608364
    11  O   -0.613581
    12  H    0.177090
    13  H    0.169078
    14  H    0.184603
    15  H    0.178673
    16  H    0.180008
    17  H    0.172280
    18  H    0.171740
    19  H    0.403344
    20  H    0.405377
    21  H    0.419809
 Sum of Mulliken atomic charges =   0.00000

 Dipole moment (field-independent basis, Debye):
    X=              2.0623    Y=             -0.6396    Z=             -2.0205  Tot=              2.9571
 Quadrupole moment (field-independent basis, Debye-Ang):
   XX=            -69.8934   YY=            -72.5682   ZZ=            -61.6485
   XY=             -1.5359   XZ=              0.9130   YZ=              5.6208

 Normal termination of Gaussian 09 at Tue Apr 16 02:07:03 2019.
