 Gaussian 09, Revision C.01,
 Gaussian 09:  EM64L-G09RevC.01 23-Sep-2011

 ------------------------------------------------
 # mpw1pw91/6-31+g** nmr scrf=(pcm,solvent=water)
 ------------------------------------------------

 99/9=1/99;
 -------
 comment
 -------
 Charge =  0 Multiplicity = 1

                         Standard orientation:
 ---------------------------------------------------------------------
 Center     Atomic      Atomic             Coordinates (Angstroms)
 Number     Number       Type             X           Y           Z
 ---------------------------------------------------------------------
      1          6           0       -1.752873    0.841501   -0.921932
      2          6           0       -0.685339    1.340100    0.064277
      3          6           0       -1.287672   -0.686100    0.726278
      4          6           0        1.196327   -0.273617    0.431708
      5          6           0        0.098711   -1.361466    0.473441
      6          6           0        0.754136    0.963753   -0.352187
      7          8           0       -1.063872    0.613059    1.254942
      8          8           0       -2.028087   -0.494324   -0.467623
      9          8           0        1.609415    2.071132   -0.084133
     10          8           0        2.376875   -0.775493   -0.208966
     11          8           0        0.084593   -2.095666   -0.738208
     12          1           0       -1.408338    0.819409   -1.960013
     13          1           0       -2.668677    1.439317   -0.857206
     14          1           0       -0.749216    2.406899    0.282295
     15          1           0       -1.898191   -1.251212    1.433544
     16          1           0        1.423434    0.047450    1.452870
     17          1           0        0.309955   -2.029778    1.323414
     18          1           0        0.782653    0.721544   -1.424197
     19          1           0        2.511874    1.773021   -0.290170
     20          1           0        2.899706   -1.259055    0.451261
     21          1           0        1.025660   -2.162284   -0.989396
 ---------------------------------------------------------------------

 SCF Done:  E(RmPW1PW91) =  -610.642222455     A.U. after   12 cycles

      1  C    Isotropic =   125.8135   Anisotropy =    48.9753

      2  C    Isotropic =   116.5161   Anisotropy =    45.4134

      3  C    Isotropic =    95.1402   Anisotropy =    35.3016

      4  C    Isotropic =   122.0804   Anisotropy =    34.3917

      5  C    Isotropic =   126.0046   Anisotropy =    32.8525

      6  C    Isotropic =   118.6669   Anisotropy =    30.8427

      7  O    Isotropic =   241.4140   Anisotropy =    64.8392

      8  O    Isotropic =   273.7993   Anisotropy =   114.8543

      9  O    Isotropic =   292.2553   Anisotropy =    67.6978

     10  O    Isotropic =   315.6775   Anisotropy =    86.1257

     11  O    Isotropic =   315.8910   Anisotropy =    46.7513

     12  H    Isotropic =    27.6935   Anisotropy =     7.2759

     13  H    Isotropic =    27.6394   Anisotropy =    10.7481

     14  H    Isotropic =    27.1478   Anisotropy =     6.8000

     15  H    Isotropic =    25.8916   Anisotropy =     8.4985

     16  H    Isotropic =    27.8800   Anisotropy =     3.3461

     17  H    Isotropic =    27.6082   Anisotropy =     7.8031

     18  H    Isotropic =    27.9098   Anisotropy =     3.6659

     19  H    Isotropic =    29.3156   Anisotropy =    18.3352

     20  H    Isotropic =    29.9094   Anisotropy =    22.5743

     21  H    Isotropic =    28.5754   Anisotropy =    17.9275

 The electronic state is 1-A.
 Alpha  occ. eigenvalues --  -19.27760 -19.27696 -19.26663 -19.26311 -19.25664
 Alpha  occ. eigenvalues --  -10.36022 -10.31935 -10.31501 -10.31423 -10.31111
 Alpha  occ. eigenvalues --  -10.30571  -1.14290  -1.09021  -1.06855  -1.05389
 Alpha  occ. eigenvalues --   -1.03935  -0.82306  -0.80810  -0.70434  -0.68820
 Alpha  occ. eigenvalues --   -0.64285  -0.59746  -0.57716  -0.56584  -0.54065
 Alpha  occ. eigenvalues --   -0.52080  -0.50722  -0.48783  -0.48345  -0.46931
 Alpha  occ. eigenvalues --   -0.44811  -0.42659  -0.42261  -0.40303  -0.37876
 Alpha  occ. eigenvalues --   -0.37611  -0.36763  -0.36357  -0.33470  -0.31890
 Alpha  occ. eigenvalues --   -0.30377  -0.28794  -0.28167
 Alpha virt. eigenvalues --    0.00271   0.01329   0.01965   0.02537   0.03995
 Alpha virt. eigenvalues --    0.04524   0.04906   0.05264   0.06017   0.08193
 Alpha virt. eigenvalues --    0.08740   0.09344   0.09704   0.10298   0.11495

 Mulliken atomic charges:
              1
     1  C   -0.254870
     2  C    0.385424
     3  C   -0.139825
     4  C   -0.192912
     5  C    0.292097
     6  C   -0.144542
     7  O   -0.347018
     8  O   -0.356052
     9  O   -0.546429
    10  O   -0.612855
    11  O   -0.538218
    12  H    0.170970
    13  H    0.176723
    14  H    0.198377
    15  H    0.185530
    16  H    0.201610
    17  H    0.166659
    18  H    0.174700
    19  H    0.381517
    20  H    0.408101
    21  H    0.391012
 Sum of Mulliken atomic charges =   0.00000

 Dipole moment (field-independent basis, Debye):
    X=              3.5580    Y=             -0.3037    Z=              1.2199  Tot=              3.7735
 Quadrupole moment (field-independent basis, Debye-Ang):
   XX=            -59.0471   YY=            -68.5344   ZZ=            -64.3250
   XY=             -9.5125   XZ=              2.3894   YZ=             -9.3464

 Normal termination of Gaussian 09 at Fri Apr 12 11:58:07 2019.
