 Gaussian 09, Revision C.01,
 Gaussian 09:  EM64L-G09RevC.01 23-Sep-2011

 ------------------------------------------------
 # mpw1pw91/6-31+g** nmr scrf=(pcm,solvent=water)
 ------------------------------------------------

 99/9=1/99;
 -------
 comment
 -------
 Charge =  0 Multiplicity = 1

                         Standard orientation:
 ---------------------------------------------------------------------
 Center     Atomic      Atomic             Coordinates (Angstroms)
 Number     Number       Type             X           Y           Z
 ---------------------------------------------------------------------
      1          6           0       -0.861572    1.583107    0.938605
      2          6           0       -1.497611    0.526779    0.036622
      3          6           0        0.470627    1.010255   -0.876978
      4          6           0        0.412651   -1.156327    0.373636
      5          6           0        1.084148   -0.398495   -0.794550
      6          6           0       -1.120182   -0.922486    0.406051
      7          8           0       -0.891614    0.878902   -1.223818
      8          8           0        0.491160    1.650905    0.424911
      9          8           0       -1.667263   -1.839892   -0.536829
     10          8           0        1.053470   -0.785037    1.600510
     11          8           0        2.492459   -0.373438   -0.640553
     12          1           0       -0.829957    1.320788    1.998949
     13          1           0       -1.352691    2.553713    0.817414
     14          1           0       -2.579360    0.638648   -0.068738
     15          1           0        0.975357    1.652004   -1.603398
     16          1           0        0.577928   -2.232136    0.271766
     17          1           0        0.857532   -0.896984   -1.743087
     18          1           0       -1.475183   -1.141759    1.423775
     19          1           0       -2.633250   -1.741286   -0.528931
     20          1           0        1.053790    0.192047    1.619932
     21          1           0        2.651785   -0.453539    0.318241
 ---------------------------------------------------------------------

 SCF Done:  E(RmPW1PW91) =  -610.647685789     A.U. after   12 cycles

      1  C    Isotropic =   129.9269   Anisotropy =    59.0362

      2  C    Isotropic =   116.1237   Anisotropy =    42.0307

      3  C    Isotropic =    89.5588   Anisotropy =    26.7478

      4  C    Isotropic =   121.2206   Anisotropy =    44.0996

      5  C    Isotropic =   127.3740   Anisotropy =    46.2488

      6  C    Isotropic =   120.9969   Anisotropy =    40.6518

      7  O    Isotropic =   237.9053   Anisotropy =    61.3586

      8  O    Isotropic =   269.6244   Anisotropy =    98.7563

      9  O    Isotropic =   289.1338   Anisotropy =    81.6346

     10  O    Isotropic =   302.8969   Anisotropy =    54.3455

     11  O    Isotropic =   309.6208   Anisotropy =    32.8483

     12  H    Isotropic =    27.5177   Anisotropy =     7.2504

     13  H    Isotropic =    27.7279   Anisotropy =    11.5474

     14  H    Isotropic =    27.2424   Anisotropy =     7.7237

     15  H    Isotropic =    26.0545   Anisotropy =     7.3402

     16  H    Isotropic =    27.6488   Anisotropy =     6.5755

     17  H    Isotropic =    27.8384   Anisotropy =     5.1670

     18  H    Isotropic =    27.4722   Anisotropy =     5.4257

     19  H    Isotropic =    30.0797   Anisotropy =    19.2914

     20  H    Isotropic =    28.2246   Anisotropy =    18.3126

     21  H    Isotropic =    28.3001   Anisotropy =    15.7607

 The electronic state is 1-A.
 Alpha  occ. eigenvalues --  -19.28078 -19.28065 -19.26835 -19.26676 -19.26191
 Alpha  occ. eigenvalues --  -10.36082 -10.32282 -10.32035 -10.31942 -10.31432
 Alpha  occ. eigenvalues --  -10.31249  -1.14795  -1.08752  -1.07363  -1.05591
 Alpha  occ. eigenvalues --   -1.04350  -0.82686  -0.81030  -0.70780  -0.68933
 Alpha  occ. eigenvalues --   -0.65281  -0.61911  -0.58474  -0.55659  -0.54309
 Alpha  occ. eigenvalues --   -0.51226  -0.50692  -0.49185  -0.47842  -0.47036
 Alpha  occ. eigenvalues --   -0.45633  -0.43959  -0.42619  -0.41284  -0.39309
 Alpha  occ. eigenvalues --   -0.37881  -0.37080  -0.35843  -0.33898  -0.32492
 Alpha  occ. eigenvalues --   -0.31410  -0.29799  -0.27568
 Alpha virt. eigenvalues --    0.00687   0.01151   0.02272   0.02952   0.04181
 Alpha virt. eigenvalues --    0.04354   0.04904   0.05328   0.05577   0.07894
 Alpha virt. eigenvalues --    0.08842   0.09389   0.09854   0.10702   0.11477

 Mulliken atomic charges:
              1
     1  C   -0.186777
     2  C    0.256556
     3  C   -0.003230
     4  C    0.010113
     5  C    0.015730
     6  C   -0.193906
     7  O   -0.328746
     8  O   -0.460115
     9  O   -0.548069
    10  O   -0.561715
    11  O   -0.514373
    12  H    0.190013
    13  H    0.187912
    14  H    0.191181
    15  H    0.187810
    16  H    0.191163
    17  H    0.193308
    18  H    0.186112
    19  H    0.387317
    20  H    0.417124
    21  H    0.382592
 Sum of Mulliken atomic charges =   0.00000

 Dipole moment (field-independent basis, Debye):
    X=             -4.9868    Y=              1.3730    Z=              2.3003  Tot=              5.6608
 Quadrupole moment (field-independent basis, Debye-Ang):
   XX=            -60.6388   YY=            -68.0159   ZZ=            -67.5384
   XY=              0.5343   XZ=             -2.6342   YZ=              1.8902

 Normal termination of Gaussian 09 at Fri Apr 12 11:53:16 2019.
