 Gaussian 09, Revision C.01,
 Gaussian 09:  EM64L-G09RevC.01 23-Sep-2011

 ------------------------------------------------
 # mpw1pw91/6-31+g** nmr scrf=(pcm,solvent=water)
 ------------------------------------------------

 99/9=1/99;
 -------
 comment
 -------
 Charge =  0 Multiplicity = 1

                         Standard orientation:
 ---------------------------------------------------------------------
 Center     Atomic      Atomic             Coordinates (Angstroms)
 Number     Number       Type             X           Y           Z
 ---------------------------------------------------------------------
      1          6           0       -0.553193    1.504670    1.153547
      2          6           0       -1.418369    0.612636    0.252574
      3          6           0        0.457942    1.049143   -0.863221
      4          6           0        0.325264   -1.242698    0.239194
      5          6           0        1.013605   -0.387975   -0.855097
      6          6           0       -1.179521   -0.899015    0.380745
      7          8           0       -0.951374    0.993025   -1.064201
      8          8           0        0.649579    1.702061    0.383652
      9          8           0       -1.942130   -1.574070   -0.617350
     10          8           0        1.032863   -0.987036    1.461736
     11          8           0        2.419096   -0.406895   -0.696282
     12          1           0       -0.307359    1.041136    2.110395
     13          1           0       -1.029919    2.476286    1.320859
     14          1           0       -2.485213    0.837878    0.305806
     15          1           0        0.910301    1.649962   -1.656822
     16          1           0        0.410665   -2.302580   -0.025642
     17          1           0        0.788491   -0.820538   -1.836906
     18          1           0       -1.535184   -1.266175    1.349375
     19          1           0       -1.828264   -1.059402   -1.436081
     20          1           0        0.984943   -1.784204    2.011518
     21          1           0        2.552900   -0.409604    0.270604
 ---------------------------------------------------------------------

 SCF Done:  E(RmPW1PW91) =  -610.650056538     A.U. after   12 cycles

      1  C    Isotropic =   130.1203   Anisotropy =    64.4612

      2  C    Isotropic =   117.6279   Anisotropy =    43.8300

      3  C    Isotropic =    91.3784   Anisotropy =    23.8470

      4  C    Isotropic =   122.1018   Anisotropy =    46.1831

      5  C    Isotropic =   128.6061   Anisotropy =    45.1636

      6  C    Isotropic =   122.3221   Anisotropy =    42.6777

      7  O    Isotropic =   241.5466   Anisotropy =    64.3243

      8  O    Isotropic =   274.8684   Anisotropy =    95.9661

      9  O    Isotropic =   289.1358   Anisotropy =    37.3740

     10  O    Isotropic =   301.3800   Anisotropy =    36.6060

     11  O    Isotropic =   309.0036   Anisotropy =    24.9415

     12  H    Isotropic =    27.1425   Anisotropy =     5.9886

     13  H    Isotropic =    27.6602   Anisotropy =    11.1828

     14  H    Isotropic =    27.1414   Anisotropy =     8.3465

     15  H    Isotropic =    26.1890   Anisotropy =     7.6111

     16  H    Isotropic =    27.4880   Anisotropy =     6.5910

     17  H    Isotropic =    27.9882   Anisotropy =     5.4106

     18  H    Isotropic =    27.8275   Anisotropy =     5.8287

     19  H    Isotropic =    29.0834   Anisotropy =    13.4747

     20  H    Isotropic =    29.4802   Anisotropy =    21.3531

     21  H    Isotropic =    27.9004   Anisotropy =    15.7622

 The electronic state is 1-A.
 Alpha  occ. eigenvalues --  -19.28120 -19.27173 -19.26726 -19.26383 -19.25850
 Alpha  occ. eigenvalues --  -10.35626 -10.31901 -10.31805 -10.31588 -10.31131
 Alpha  occ. eigenvalues --  -10.30509  -1.14305  -1.08612  -1.07223  -1.05508
 Alpha  occ. eigenvalues --   -1.03817  -0.82091  -0.80709  -0.70537  -0.68582
 Alpha  occ. eigenvalues --   -0.64878  -0.61296  -0.57903  -0.55489  -0.54073
 Alpha  occ. eigenvalues --   -0.52921  -0.50426  -0.47780  -0.47107  -0.46283
 Alpha  occ. eigenvalues --   -0.45170  -0.43429  -0.42528  -0.40112  -0.38791
 Alpha  occ. eigenvalues --   -0.37971  -0.37276  -0.35049  -0.34355  -0.32986
 Alpha  occ. eigenvalues --   -0.30741  -0.28823  -0.27249
 Alpha virt. eigenvalues --    0.00394   0.01423   0.02259   0.02540   0.04212
 Alpha virt. eigenvalues --    0.04887   0.05001   0.05374   0.05761   0.08195
 Alpha virt. eigenvalues --    0.08601   0.09124   0.10055   0.10775   0.11612

 Mulliken atomic charges:
              1
     1  C   -0.200870
     2  C    0.316715
     3  C   -0.060695
     4  C    0.156396
     5  C    0.005007
     6  C   -0.283928
     7  O   -0.373398
     8  O   -0.382268
     9  O   -0.511217
    10  O   -0.637459
    11  O   -0.530251
    12  H    0.190132
    13  H    0.175515
    14  H    0.196946
    15  H    0.183877
    16  H    0.191509
    17  H    0.189002
    18  H    0.185337
    19  H    0.380549
    20  H    0.417071
    21  H    0.392030
 Sum of Mulliken atomic charges =   0.00000

 Dipole moment (field-independent basis, Debye):
    X=             -2.1511    Y=             -1.5832    Z=              2.6842  Tot=              3.7867
 Quadrupole moment (field-independent basis, Debye-Ang):
   XX=            -73.7085   YY=            -65.4017   ZZ=            -57.9075
   XY=             -6.7946   XZ=             -0.3551   YZ=             -4.0224

 Normal termination of Gaussian 09 at Fri Apr 12 11:43:20 2019.
