 Gaussian 09, Revision C.01,
 Gaussian 09:  EM64L-G09RevC.01 23-Sep-2011

 ------------------------------------------------
 # mpw1pw91/6-31+g** nmr scrf=(pcm,solvent=water)
 ------------------------------------------------

 99/9=1/99;
 -------
 comment
 -------
 Charge =  0 Multiplicity = 1

                         Standard orientation:
 ---------------------------------------------------------------------
 Center     Atomic      Atomic             Coordinates (Angstroms)
 Number     Number       Type             X           Y           Z
 ---------------------------------------------------------------------
      1          6           0        1.655788   -1.081575   -0.863156
      2          6           0        0.507510   -1.420539    0.090167
      3          6           0        1.312302    0.540439    0.754597
      4          6           0       -1.172947    0.436302    0.405143
      5          6           0        0.035339    1.396603    0.465191
      6          6           0       -0.859698   -0.850429   -0.374274
      7          8           0        0.956376   -0.720162    1.277284
      8          8           0        1.978793    0.276972   -0.494079
      9          8           0       -1.938665   -1.778422   -0.254664
     10          8           0       -2.297888    1.105227   -0.139642
     11          8           0        0.208758    2.173358   -0.705989
     12          1           0        1.383435   -1.111718   -1.920573
     13          1           0        2.525940   -1.722125   -0.686651
     14          1           0        0.433867   -2.482224    0.331104
     15          1           0        2.011125    1.027506    1.436646
     16          1           0       -1.377656    0.134092    1.444793
     17          1           0       -0.129477    2.095893    1.291999
     18          1           0       -0.826064   -0.615841   -1.442829
     19          1           0       -2.027445   -2.016397    0.684592
     20          1           0       -2.986719    0.423697   -0.226895
     21          1           0        0.864236    1.686532   -1.241480
 ---------------------------------------------------------------------

 SCF Done:  E(RmPW1PW91) =  -610.642587326     A.U. after   12 cycles

      1  C    Isotropic =   126.1836   Anisotropy =    45.3363

      2  C    Isotropic =   113.9023   Anisotropy =    43.5868

      3  C    Isotropic =    95.6759   Anisotropy =    35.1348

      4  C    Isotropic =   122.4081   Anisotropy =    28.7205

      5  C    Isotropic =   127.5033   Anisotropy =    37.8463

      6  C    Isotropic =   118.0541   Anisotropy =    28.8468

      7  O    Isotropic =   245.5114   Anisotropy =    52.0008

      8  O    Isotropic =   276.2216   Anisotropy =   100.2572

      9  O    Isotropic =   283.5055   Anisotropy =    52.4999

     10  O    Isotropic =   311.6370   Anisotropy =    26.6705

     11  O    Isotropic =   318.8829   Anisotropy =    69.2308

     12  H    Isotropic =    27.6387   Anisotropy =     7.6446

     13  H    Isotropic =    27.7688   Anisotropy =    11.0706

     14  H    Isotropic =    27.1619   Anisotropy =     6.7496

     15  H    Isotropic =    25.9710   Anisotropy =     8.8806

     16  H    Isotropic =    28.1105   Anisotropy =     3.3304

     17  H    Isotropic =    27.4959   Anisotropy =     7.4881

     18  H    Isotropic =    28.1954   Anisotropy =     4.2616

     19  H    Isotropic =    30.4547   Anisotropy =    16.2056

     20  H    Isotropic =    29.1068   Anisotropy =    17.8422

     21  H    Isotropic =    28.7542   Anisotropy =    17.9379

 The electronic state is 1-A.
 Alpha  occ. eigenvalues --  -19.28380 -19.28142 -19.27084 -19.26045 -19.25644
 Alpha  occ. eigenvalues --  -10.36657 -10.32398 -10.31681 -10.31390 -10.31264
 Alpha  occ. eigenvalues --  -10.31100  -1.15048  -1.08413  -1.07079  -1.05558
 Alpha  occ. eigenvalues --   -1.04413  -0.82611  -0.80819  -0.71076  -0.68385
 Alpha  occ. eigenvalues --   -0.65471  -0.60643  -0.58079  -0.56571  -0.53688
 Alpha  occ. eigenvalues --   -0.52997  -0.51497  -0.47938  -0.47247  -0.46710
 Alpha  occ. eigenvalues --   -0.45312  -0.42692  -0.42106  -0.41585  -0.39065
 Alpha  occ. eigenvalues --   -0.38303  -0.36872  -0.36039  -0.34184  -0.31792
 Alpha  occ. eigenvalues --   -0.31247  -0.28661  -0.28281
 Alpha virt. eigenvalues --    0.00620   0.01377   0.02017   0.02292   0.04126
 Alpha virt. eigenvalues --    0.04305   0.04669   0.05063   0.05943   0.08247
 Alpha virt. eigenvalues --    0.08777   0.09414   0.09706   0.10363   0.11172

 Mulliken atomic charges:
              1
     1  C   -0.247350
     2  C    0.389677
     3  C   -0.101113
     4  C   -0.037522
     5  C    0.197798
     6  C   -0.299323
     7  O   -0.345307
     8  O   -0.439497
     9  O   -0.558109
    10  O   -0.528689
    11  O   -0.519909
    12  H    0.185671
    13  H    0.185378
    14  H    0.202801
    15  H    0.194430
    16  H    0.178770
    17  H    0.178147
    18  H    0.196557
    19  H    0.383871
    20  H    0.386565
    21  H    0.397153
 Sum of Mulliken atomic charges =   0.00000

 Dipole moment (field-independent basis, Debye):
    X=              1.2226    Y=             -4.6251    Z=              1.6004  Tot=              5.0445
 Quadrupole moment (field-independent basis, Debye-Ang):
   XX=            -66.1345   YY=            -71.1150   ZZ=            -61.9891
   XY=              2.5056   XZ=             -5.7142   YZ=              3.7248

 Normal termination of Gaussian 09 at Fri Apr 12 11:59:36 2019.
