 Gaussian 09, Revision C.01,
 Gaussian 09:  EM64L-G09RevC.01 23-Sep-2011

 ------------------------------------------------
 # mpw1pw91/6-31+g** nmr scrf=(pcm,solvent=water)
 ------------------------------------------------

 99/9=1/99;
 -------
 comment
 -------
 Charge =  0 Multiplicity = 1

                         Standard orientation:
 ---------------------------------------------------------------------
 Center     Atomic      Atomic             Coordinates (Angstroms)
 Number     Number       Type             X           Y           Z
 ---------------------------------------------------------------------
      1          6           0        1.655428   -0.877239   -0.973209
      2          6           0        0.559020   -1.374801   -0.004802
      3          6           0        1.330718    0.543117    0.784323
      4          6           0       -1.173163    0.382291    0.450945
      5          6           0        0.021889    1.349633    0.476137
      6          6           0       -0.860623   -0.874699   -0.373604
      7          8           0        0.978603   -0.758504    1.233472
      8          8           0        2.126546    0.337082   -0.365247
      9          8           0       -1.886174   -1.853359   -0.209756
     10          8           0       -2.284906    1.096466   -0.081845
     11          8           0        0.141080    2.017313   -0.770627
     12          1           0        1.275778   -0.674702   -1.979400
     13          1           0        2.489669   -1.582977   -1.037185
     14          1           0        0.563500   -2.457567    0.133067
     15          1           0        1.939021    1.025111    1.551346
     16          1           0       -1.382789    0.067462    1.482650
     17          1           0       -0.137815    2.077659    1.285626
     18          1           0       -0.899661   -0.616818   -1.435834
     19          1           0       -1.913785   -2.105601    0.729278
     20          1           0       -2.958178    0.434373   -0.314671
     21          1           0       -0.776546    2.231270   -1.021587
 ---------------------------------------------------------------------

 SCF Done:  E(RmPW1PW91) =  -610.641132719     A.U. after   12 cycles

      1  C    Isotropic =   125.7634   Anisotropy =    52.3296

      2  C    Isotropic =   115.3501   Anisotropy =    43.5116

      3  C    Isotropic =    95.2835   Anisotropy =    35.3562

      4  C    Isotropic =   123.0282   Anisotropy =    31.2060

      5  C    Isotropic =   126.4030   Anisotropy =    36.4836

      6  C    Isotropic =   116.0796   Anisotropy =    29.0061

      7  O    Isotropic =   240.2043   Anisotropy =    63.4154

      8  O    Isotropic =   268.9250   Anisotropy =   113.2033

      9  O    Isotropic =   283.1290   Anisotropy =    48.2432

     10  O    Isotropic =   308.2459   Anisotropy =    22.0175

     11  O    Isotropic =   315.8979   Anisotropy =    47.8677

     12  H    Isotropic =    27.7334   Anisotropy =     6.8899

     13  H    Isotropic =    27.5413   Anisotropy =    10.4450

     14  H    Isotropic =    27.1907   Anisotropy =     6.9269

     15  H    Isotropic =    25.9276   Anisotropy =     8.5921

     16  H    Isotropic =    28.0614   Anisotropy =     3.8607

     17  H    Isotropic =    27.3894   Anisotropy =     7.9516

     18  H    Isotropic =    28.1925   Anisotropy =     3.7748

     19  H    Isotropic =    30.2648   Anisotropy =    16.0529

     20  H    Isotropic =    28.9683   Anisotropy =    17.9589

     21  H    Isotropic =    28.7714   Anisotropy =    17.9102

 The electronic state is 1-A.
 Alpha  occ. eigenvalues --  -19.27781 -19.27033 -19.26997 -19.26795 -19.25802
 Alpha  occ. eigenvalues --  -10.36145 -10.32042 -10.31606 -10.31464 -10.31340
 Alpha  occ. eigenvalues --  -10.30677  -1.14421  -1.08961  -1.07177  -1.05417
 Alpha  occ. eigenvalues --   -1.04058  -0.82176  -0.80838  -0.70643  -0.68715
 Alpha  occ. eigenvalues --   -0.64926  -0.60346  -0.57963  -0.56205  -0.54209
 Alpha  occ. eigenvalues --   -0.52389  -0.50157  -0.48888  -0.47483  -0.46538
 Alpha  occ. eigenvalues --   -0.45561  -0.43455  -0.41680  -0.40679  -0.38602
 Alpha  occ. eigenvalues --   -0.37505  -0.36977  -0.36529  -0.33221  -0.32068
 Alpha  occ. eigenvalues --   -0.30341  -0.28959  -0.28217
 Alpha virt. eigenvalues --    0.00522   0.01391   0.01890   0.02344   0.04245
 Alpha virt. eigenvalues --    0.04507   0.04790   0.05255   0.05598   0.08157
 Alpha virt. eigenvalues --    0.08574   0.09406   0.09875   0.10249   0.11129

 Mulliken atomic charges:
              1
     1  C   -0.263551
     2  C    0.391034
     3  C   -0.142671
     4  C   -0.081896
     5  C    0.282947
     6  C   -0.255179
     7  O   -0.352230
     8  O   -0.346375
     9  O   -0.546261
    10  O   -0.577856
    11  O   -0.553145
    12  H    0.169152
    13  H    0.179101
    14  H    0.199084
    15  H    0.187237
    16  H    0.184247
    17  H    0.168404
    18  H    0.192004
    19  H    0.381634
    20  H    0.392849
    21  H    0.391470
 Sum of Mulliken atomic charges =   0.00000

 Dipole moment (field-independent basis, Debye):
    X=             -2.1303    Y=             -2.6423    Z=              1.3595  Tot=              3.6562
 Quadrupole moment (field-independent basis, Debye-Ang):
   XX=            -67.9359   YY=            -66.3859   ZZ=            -62.3840
   XY=             -3.1060   XZ=             -1.2548   YZ=              2.7168

 Normal termination of Gaussian 09 at Fri Apr 12 11:54:10 2019.
