 Gaussian 09, Revision C.01,
 Gaussian 09:  EM64L-G09RevC.01 23-Sep-2011

 -----------------------------------------------------------
 # B3LYP/6-31+G** test scrf=(pcm,solvent=water,smd,dovacuum)
 -----------------------------------------------------------

 99/5=1,9=1/99;
 -------
 comment
 -------
 Charge =  0 Multiplicity = 1

                         Standard orientation:
 ---------------------------------------------------------------------
 Center     Atomic      Atomic             Coordinates (Angstroms)
 Number     Number       Type             X           Y           Z
 ---------------------------------------------------------------------
      1          6           0       -0.491266    1.576081    1.094845
      2          6           0       -1.360211    0.765452    0.119520
      3          6           0        0.629849    0.997894   -0.825037
      4          6           0        0.176817   -1.260697    0.264395
      5          6           0        1.001485   -0.496745   -0.797107
      6          6           0       -1.284316   -0.749497    0.335262
      7          8           0       -0.744954    1.096312   -1.142585
      8          8           0        0.793624    1.622290    0.441255
      9          8           0       -2.091306   -1.340514   -0.679467
     10          8           0        0.758824   -1.120373    1.555254
     11          8           0        2.369070   -0.723607   -0.466295
     12          1           0       -0.386636    1.108197    2.074979
     13          1           0       -0.870703    2.597423    1.206157
     14          1           0       -2.400725    1.092172    0.079128
     15          1           0        1.210232    1.548877   -1.573181
     16          1           0        0.155006   -2.326381   -0.014721
     17          1           0        0.765280   -0.901658   -1.790323
     18          1           0       -1.670057   -0.989370    1.336770
     19          1           0       -2.149194   -2.291042   -0.490556
     20          1           0        1.701461   -0.930087    1.395123
     21          1           0        2.929119   -0.175918   -1.039951
 ---------------------------------------------------------------------

 SCF Done:  E(RB3LYP) =  -610.805804893     A.U. after   12 cycles

 The electronic state is 1-A.
 Alpha  occ. eigenvalues --  -19.18281 -19.17747 -19.17406 -19.16991 -19.16300
 Alpha  occ. eigenvalues --  -10.29284 -10.24978 -10.24795 -10.24770 -10.24670
 Alpha  occ. eigenvalues --  -10.23804  -1.11167  -1.05403  -1.03964  -1.02288
 Alpha  occ. eigenvalues --   -1.01020  -0.79364  -0.77771  -0.68048  -0.65810
 Alpha  occ. eigenvalues --   -0.62867  -0.58326  -0.54841  -0.53577  -0.52160
 Alpha  occ. eigenvalues --   -0.50045  -0.48856  -0.47564  -0.44788  -0.44265
 Alpha  occ. eigenvalues --   -0.43146  -0.41286  -0.40385  -0.39088  -0.37836
 Alpha  occ. eigenvalues --   -0.36130  -0.35569  -0.34450  -0.31390  -0.29776
 Alpha  occ. eigenvalues --   -0.29125  -0.28124  -0.25973
 Alpha virt. eigenvalues --    0.00598   0.01254   0.02214   0.03084   0.04200
 Alpha virt. eigenvalues --    0.04685   0.05228   0.05548   0.06146   0.08096
 Alpha virt. eigenvalues --    0.08736   0.09594   0.09943   0.10931   0.11833

 Mulliken atomic charges:
              1
     1  C   -0.122770
     2  C    0.360586
     3  C   -0.054701
     4  C    0.100778
     5  C    0.191626
     6  C   -0.168900
     7  O   -0.408418
     8  O   -0.449078
     9  O   -0.624067
    10  O   -0.610779
    11  O   -0.640412
    12  H    0.176537
    13  H    0.163592
    14  H    0.174459
    15  H    0.171267
    16  H    0.150813
    17  H    0.175568
    18  H    0.170842
    19  H    0.412956
    20  H    0.409677
    21  H    0.420424
 Sum of Mulliken atomic charges =   0.00000

 Dipole moment (field-independent basis, Debye):
    X=              0.2192    Y=             -0.9732    Z=             -0.6122  Tot=              1.1705
 Quadrupole moment (field-independent basis, Debye-Ang):
   XX=            -61.2707   YY=            -62.1942   ZZ=            -67.5577
   XY=              3.3521   XZ=            -13.0495   YZ=              2.7919

 Normal termination of Gaussian 09 at Mon Apr 15 18:29:17 2019.
