 Gaussian 09, Revision C.01,
 Gaussian 09:  EM64L-G09RevC.01 23-Sep-2011

 ------------------------------------------------
 # mpw1pw91/6-31+g** nmr scrf=(pcm,solvent=water)
 ------------------------------------------------

 99/9=1/99;
 -------
 comment
 -------
 Charge =  0 Multiplicity = 1

                         Standard orientation:
 ---------------------------------------------------------------------
 Center     Atomic      Atomic             Coordinates (Angstroms)
 Number     Number       Type             X           Y           Z
 ---------------------------------------------------------------------
      1          6           0        1.645681   -1.099537   -0.854156
      2          6           0        0.501505   -1.420175    0.109793
      3          6           0        1.320151    0.543583    0.745167
      4          6           0       -1.166373    0.445690    0.408002
      5          6           0        0.044999    1.399904    0.449274
      6          6           0       -0.865659   -0.848888   -0.355712
      7          8           0        0.961671   -0.707563    1.285944
      8          8           0        1.981451    0.260946   -0.502345
      9          8           0       -1.961999   -1.721664   -0.075467
     10          8           0       -2.292735    1.114258   -0.136144
     11          8           0        0.216995    2.160926   -0.733102
     12          1           0        1.365699   -1.138355   -1.909519
     13          1           0        2.513095   -1.743984   -0.678283
     14          1           0        0.420220   -2.476144    0.371008
     15          1           0        2.023487    1.037875    1.417425
     16          1           0       -1.367761    0.145846    1.446884
     17          1           0       -0.113938    2.111234    1.266957
     18          1           0       -0.835160   -0.628086   -1.430772
     19          1           0       -2.004666   -2.393048   -0.774757
     20          1           0       -2.994749    0.441804   -0.170365
     21          1           0        0.868882    1.664171   -1.263870
 ---------------------------------------------------------------------

 SCF Done:  E(RmPW1PW91) =  -610.643389864     A.U. after   12 cycles

      1  C    Isotropic =   126.8814   Anisotropy =    46.9231

      2  C    Isotropic =   113.1436   Anisotropy =    42.2524

      3  C    Isotropic =    96.0063   Anisotropy =    35.1620

      4  C    Isotropic =   124.2510   Anisotropy =    33.0255

      5  C    Isotropic =   127.4283   Anisotropy =    37.6316

      6  C    Isotropic =   118.7657   Anisotropy =    28.1847

      7  O    Isotropic =   245.5668   Anisotropy =    54.4179

      8  O    Isotropic =   275.6361   Anisotropy =   100.4369

      9  O    Isotropic =   289.5923   Anisotropy =    33.7998

     10  O    Isotropic =   310.8659   Anisotropy =    26.0741

     11  O    Isotropic =   318.8616   Anisotropy =    70.1649

     12  H    Isotropic =    27.6977   Anisotropy =     7.5983

     13  H    Isotropic =    27.8168   Anisotropy =    11.1183

     14  H    Isotropic =    27.1374   Anisotropy =     6.7937

     15  H    Isotropic =    25.9739   Anisotropy =     8.9294

     16  H    Isotropic =    27.9350   Anisotropy =     3.3955

     17  H    Isotropic =    27.4848   Anisotropy =     7.5319

     18  H    Isotropic =    27.9799   Anisotropy =     4.8633

     19  H    Isotropic =    29.2320   Anisotropy =    19.4200

     20  H    Isotropic =    29.0670   Anisotropy =    17.9218

     21  H    Isotropic =    28.7813   Anisotropy =    17.9491

 The electronic state is 1-A.
 Alpha  occ. eigenvalues --  -19.28245 -19.28060 -19.26908 -19.25898 -19.25575
 Alpha  occ. eigenvalues --  -10.36559 -10.32177 -10.31619 -10.31276 -10.31162
 Alpha  occ. eigenvalues --  -10.30910  -1.14933  -1.08266  -1.06955  -1.05420
 Alpha  occ. eigenvalues --   -1.04303  -0.82531  -0.80835  -0.71073  -0.68210
 Alpha  occ. eigenvalues --   -0.65064  -0.59472  -0.58050  -0.57197  -0.54942
 Alpha  occ. eigenvalues --   -0.52041  -0.50545  -0.48276  -0.47796  -0.46203
 Alpha  occ. eigenvalues --   -0.45194  -0.43890  -0.41681  -0.40213  -0.38817
 Alpha  occ. eigenvalues --   -0.38467  -0.36862  -0.36277  -0.33569  -0.31328
 Alpha  occ. eigenvalues --   -0.31146  -0.28864  -0.28300
 Alpha virt. eigenvalues --    0.00677   0.01139   0.01867   0.02536   0.03963
 Alpha virt. eigenvalues --    0.04277   0.04874   0.05159   0.06202   0.08057
 Alpha virt. eigenvalues --    0.08882   0.09284   0.09726   0.10390   0.11449

 Mulliken atomic charges:
              1
     1  C   -0.240768
     2  C    0.410924
     3  C   -0.103574
     4  C   -0.074784
     5  C    0.207576
     6  C   -0.269216
     7  O   -0.346625
     8  O   -0.440239
     9  O   -0.576662
    10  O   -0.534347
    11  O   -0.522605
    12  H    0.184243
    13  H    0.184266
    14  H    0.199357
    15  H    0.193608
    16  H    0.184229
    17  H    0.177526
    18  H    0.190361
    19  H    0.394621
    20  H    0.384908
    21  H    0.397201
 Sum of Mulliken atomic charges =   0.00000

 Dipole moment (field-independent basis, Debye):
    X=              1.1497    Y=             -5.6186    Z=             -1.5568  Tot=              5.9426
 Quadrupole moment (field-independent basis, Debye-Ang):
   XX=            -66.4829   YY=            -66.7193   ZZ=            -62.1891
   XY=              4.3242   XZ=              1.0863   YZ=             11.7702

 Normal termination of Gaussian 09 at Fri Apr 12 11:59:44 2019.
