 Gaussian 09, Revision C.01,
 Gaussian 09:  EM64L-G09RevC.01 23-Sep-2011

 -----------------------------------------------------------
 # B3LYP/6-31+G** test scrf=(pcm,solvent=water,smd,dovacuum)
 -----------------------------------------------------------

 99/5=1,9=1/99;
 -------
 comment
 -------
 Charge =  0 Multiplicity = 1

                         Standard orientation:
 ---------------------------------------------------------------------
 Center     Atomic      Atomic             Coordinates (Angstroms)
 Number     Number       Type             X           Y           Z
 ---------------------------------------------------------------------
      1          6           0        1.655788   -1.081575   -0.863156
      2          6           0        0.507510   -1.420539    0.090167
      3          6           0        1.312302    0.540439    0.754597
      4          6           0       -1.172947    0.436302    0.405143
      5          6           0        0.035339    1.396603    0.465191
      6          6           0       -0.859698   -0.850429   -0.374274
      7          8           0        0.956376   -0.720162    1.277284
      8          8           0        1.978793    0.276972   -0.494079
      9          8           0       -1.938665   -1.778422   -0.254664
     10          8           0       -2.297888    1.105227   -0.139642
     11          8           0        0.208758    2.173358   -0.705989
     12          1           0        1.383435   -1.111718   -1.920573
     13          1           0        2.525940   -1.722125   -0.686651
     14          1           0        0.433867   -2.482224    0.331104
     15          1           0        2.011125    1.027506    1.436646
     16          1           0       -1.377656    0.134092    1.444793
     17          1           0       -0.129477    2.095893    1.291999
     18          1           0       -0.826064   -0.615841   -1.442829
     19          1           0       -2.027445   -2.016397    0.684592
     20          1           0       -2.986719    0.423697   -0.226895
     21          1           0        0.864236    1.686532   -1.241480
 ---------------------------------------------------------------------

 SCF Done:  E(RB3LYP) =  -610.802814021     A.U. after   12 cycles

 The electronic state is 1-A.
 Alpha  occ. eigenvalues --  -19.18671 -19.18237 -19.17237 -19.16841 -19.16543
 Alpha  occ. eigenvalues --  -10.29880 -10.25289 -10.24673 -10.24603 -10.24239
 Alpha  occ. eigenvalues --  -10.24185  -1.11499  -1.05087  -1.03933  -1.02405
 Alpha  occ. eigenvalues --   -1.01187  -0.79314  -0.77785  -0.68152  -0.65596
 Alpha  occ. eigenvalues --   -0.62733  -0.58211  -0.55734  -0.54167  -0.51471
 Alpha  occ. eigenvalues --   -0.50755  -0.49243  -0.45731  -0.45070  -0.44643
 Alpha  occ. eigenvalues --   -0.43279  -0.40658  -0.40244  -0.39859  -0.37463
 Alpha  occ. eigenvalues --   -0.36589  -0.34994  -0.34386  -0.32410  -0.30289
 Alpha  occ. eigenvalues --   -0.29549  -0.27171  -0.26700
 Alpha virt. eigenvalues --    0.00721   0.01517   0.02163   0.02514   0.04334
 Alpha virt. eigenvalues --    0.04504   0.04824   0.05330   0.06099   0.08434
 Alpha virt. eigenvalues --    0.09032   0.09607   0.09912   0.10608   0.11454

 Mulliken atomic charges:
              1
     1  C   -0.204355
     2  C    0.404458
     3  C    0.025789
     4  C    0.087735
     5  C    0.175120
     6  C   -0.200689
     7  O   -0.427499
     8  O   -0.490551
     9  O   -0.624128
    10  O   -0.615331
    11  O   -0.591392
    12  H    0.176289
    13  H    0.169141
    14  H    0.185922
    15  H    0.178683
    16  H    0.168869
    17  H    0.166317
    18  H    0.183044
    19  H    0.406402
    20  H    0.410600
    21  H    0.415575
 Sum of Mulliken atomic charges =   0.00000

 Dipole moment (field-independent basis, Debye):
    X=              1.2479    Y=             -5.0623    Z=              1.7746  Tot=              5.5076
 Quadrupole moment (field-independent basis, Debye-Ang):
   XX=            -67.3565   YY=            -72.7504   ZZ=            -62.4448
   XY=              2.8805   XZ=             -6.3652   YZ=              4.0156

 Normal termination of Gaussian 09 at Mon Apr 15 18:35:36 2019.
