 Gaussian 09, Revision C.01,
 Gaussian 09:  EM64L-G09RevC.01 23-Sep-2011

 ------------------------------------------------
 # mpw1pw91/6-31+g** nmr scrf=(pcm,solvent=water)
 ------------------------------------------------

 99/9=1/99;
 -------
 comment
 -------
 Charge =  0 Multiplicity = 1

                         Standard orientation:
 ---------------------------------------------------------------------
 Center     Atomic      Atomic             Coordinates (Angstroms)
 Number     Number       Type             X           Y           Z
 ---------------------------------------------------------------------
      1          6           0       -0.491266    1.576081    1.094845
      2          6           0       -1.360211    0.765452    0.119520
      3          6           0        0.629849    0.997894   -0.825037
      4          6           0        0.176817   -1.260697    0.264395
      5          6           0        1.001485   -0.496745   -0.797107
      6          6           0       -1.284316   -0.749497    0.335262
      7          8           0       -0.744954    1.096312   -1.142585
      8          8           0        0.793624    1.622290    0.441255
      9          8           0       -2.091306   -1.340514   -0.679467
     10          8           0        0.758824   -1.120373    1.555254
     11          8           0        2.369070   -0.723607   -0.466295
     12          1           0       -0.386636    1.108197    2.074979
     13          1           0       -0.870703    2.597423    1.206157
     14          1           0       -2.400725    1.092172    0.079128
     15          1           0        1.210232    1.548877   -1.573181
     16          1           0        0.155006   -2.326381   -0.014721
     17          1           0        0.765280   -0.901658   -1.790323
     18          1           0       -1.670057   -0.989370    1.336770
     19          1           0       -2.149194   -2.291042   -0.490556
     20          1           0        1.701461   -0.930087    1.395123
     21          1           0        2.929119   -0.175918   -1.039951
 ---------------------------------------------------------------------

 SCF Done:  E(RmPW1PW91) =  -610.646823900     A.U. after   12 cycles

      1  C    Isotropic =   129.6314   Anisotropy =    63.1081

      2  C    Isotropic =   118.1850   Anisotropy =    47.0363

      3  C    Isotropic =    92.8554   Anisotropy =    25.7995

      4  C    Isotropic =   122.4019   Anisotropy =    46.1751

      5  C    Isotropic =   126.1181   Anisotropy =    43.0960

      6  C    Isotropic =   122.2911   Anisotropy =    44.5925

      7  O    Isotropic =   239.9254   Anisotropy =    57.7711

      8  O    Isotropic =   273.8220   Anisotropy =    96.9484

      9  O    Isotropic =   290.0113   Anisotropy =    74.8079

     10  O    Isotropic =   311.2033   Anisotropy =    35.2195

     11  O    Isotropic =   304.7886   Anisotropy =    57.8086

     12  H    Isotropic =    27.2234   Anisotropy =     6.0890

     13  H    Isotropic =    27.7094   Anisotropy =    11.2507

     14  H    Isotropic =    26.9917   Anisotropy =     7.9681

     15  H    Isotropic =    26.2340   Anisotropy =     7.6107

     16  H    Isotropic =    27.5801   Anisotropy =     7.1763

     17  H    Isotropic =    27.7135   Anisotropy =     5.2629

     18  H    Isotropic =    27.6393   Anisotropy =     5.1345

     19  H    Isotropic =    29.9295   Anisotropy =    19.2405

     20  H    Isotropic =    28.1010   Anisotropy =    16.6332

     21  H    Isotropic =    29.6910   Anisotropy =    19.7016

 The electronic state is 1-A.
 Alpha  occ. eigenvalues --  -19.27576 -19.27489 -19.26617 -19.26394 -19.25414
 Alpha  occ. eigenvalues --  -10.35826 -10.31680 -10.31537 -10.31533 -10.31430
 Alpha  occ. eigenvalues --  -10.30344  -1.14227  -1.08687  -1.07163  -1.05304
 Alpha  occ. eigenvalues --   -1.03771  -0.82234  -0.80651  -0.70681  -0.68381
 Alpha  occ. eigenvalues --   -0.65234  -0.60486  -0.57045  -0.55772  -0.54270
 Alpha  occ. eigenvalues --   -0.52087  -0.50707  -0.49513  -0.46651  -0.46118
 Alpha  occ. eigenvalues --   -0.45027  -0.42931  -0.42123  -0.40891  -0.39266
 Alpha  occ. eigenvalues --   -0.37585  -0.36816  -0.35880  -0.33063  -0.31115
 Alpha  occ. eigenvalues --   -0.30568  -0.29454  -0.27271
 Alpha virt. eigenvalues --    0.00515   0.01134   0.02068   0.02945   0.04014
 Alpha virt. eigenvalues --    0.04420   0.05159   0.05409   0.06020   0.08024
 Alpha virt. eigenvalues --    0.08598   0.09478   0.09665   0.10845   0.11651

 Mulliken atomic charges:
              1
     1  C   -0.166601
     2  C    0.349725
     3  C   -0.194376
     4  C    0.059089
     5  C    0.164257
     6  C   -0.270982
     7  O   -0.329427
     8  O   -0.370600
     9  O   -0.553982
    10  O   -0.545872
    11  O   -0.583190
    12  H    0.189457
    13  H    0.173826
    14  H    0.189400
    15  H    0.184065
    16  H    0.158812
    17  H    0.185946
    18  H    0.183265
    19  H    0.386586
    20  H    0.394642
    21  H    0.395958
 Sum of Mulliken atomic charges =   0.00000

 Dipole moment (field-independent basis, Debye):
    X=              0.2259    Y=             -0.8142    Z=             -0.5264  Tot=              0.9955
 Quadrupole moment (field-independent basis, Debye-Ang):
   XX=            -60.8198   YY=            -61.9998   ZZ=            -66.7484
   XY=              3.0793   XZ=            -11.8086   YZ=              2.5547

 Normal termination of Gaussian 09 at Fri Apr 12 11:46:40 2019.
