 Gaussian 09, Revision C.01,
 Gaussian 09:  EM64L-G09RevC.01 23-Sep-2011

 -----------------------------------------------------------
 # B3LYP/6-31+G** test scrf=(pcm,solvent=water,smd,dovacuum)
 -----------------------------------------------------------

 99/5=1,9=1/99;
 -------
 comment
 -------
 Charge =  0 Multiplicity = 1

                         Standard orientation:
 ---------------------------------------------------------------------
 Center     Atomic      Atomic             Coordinates (Angstroms)
 Number     Number       Type             X           Y           Z
 ---------------------------------------------------------------------
      1          6           0        1.655428   -0.877239   -0.973209
      2          6           0        0.559020   -1.374801   -0.004802
      3          6           0        1.330718    0.543117    0.784323
      4          6           0       -1.173163    0.382291    0.450945
      5          6           0        0.021889    1.349633    0.476137
      6          6           0       -0.860623   -0.874699   -0.373604
      7          8           0        0.978603   -0.758504    1.233472
      8          8           0        2.126546    0.337082   -0.365247
      9          8           0       -1.886174   -1.853359   -0.209756
     10          8           0       -2.284906    1.096466   -0.081845
     11          8           0        0.141080    2.017313   -0.770627
     12          1           0        1.275778   -0.674702   -1.979400
     13          1           0        2.489669   -1.582977   -1.037185
     14          1           0        0.563500   -2.457567    0.133067
     15          1           0        1.939021    1.025111    1.551346
     16          1           0       -1.382789    0.067462    1.482650
     17          1           0       -0.137815    2.077659    1.285626
     18          1           0       -0.899661   -0.616818   -1.435834
     19          1           0       -1.913785   -2.105601    0.729278
     20          1           0       -2.958178    0.434373   -0.314671
     21          1           0       -0.776546    2.231270   -1.021587
 ---------------------------------------------------------------------

 SCF Done:  E(RB3LYP) =  -610.800512738     A.U. after   12 cycles

 The electronic state is 1-A.
 Alpha  occ. eigenvalues --  -19.18281 -19.17583 -19.17350 -19.17224 -19.16710
 Alpha  occ. eigenvalues --  -10.29623 -10.25130 -10.24682 -10.24599 -10.24512
 Alpha  occ. eigenvalues --  -10.23946  -1.11258  -1.05580  -1.03869  -1.02264
 Alpha  occ. eigenvalues --   -1.01201  -0.79105  -0.77872  -0.67880  -0.66056
 Alpha  occ. eigenvalues --   -0.62409  -0.58074  -0.55589  -0.53895  -0.52096
 Alpha  occ. eigenvalues --   -0.50233  -0.48091  -0.47001  -0.45377  -0.44572
 Alpha  occ. eigenvalues --   -0.43596  -0.41605  -0.39858  -0.39027  -0.36993
 Alpha  occ. eigenvalues --   -0.35962  -0.35426  -0.34834  -0.31504  -0.30447
 Alpha  occ. eigenvalues --   -0.28956  -0.27675  -0.26666
 Alpha virt. eigenvalues --    0.00587   0.01496   0.02041   0.02549   0.04409
 Alpha virt. eigenvalues --    0.04651   0.04905   0.05452   0.05775   0.08299
 Alpha virt. eigenvalues --    0.08783   0.09602   0.10075   0.10481   0.11380

 Mulliken atomic charges:
              1
     1  C   -0.209176
     2  C    0.397398
     3  C   -0.016058
     4  C    0.042335
     5  C    0.257799
     6  C   -0.175464
     7  O   -0.428578
     8  O   -0.427663
     9  O   -0.614419
    10  O   -0.641638
    11  O   -0.617314
    12  H    0.166324
    13  H    0.167578
    14  H    0.183205
    15  H    0.174685
    16  H    0.173288
    17  H    0.157016
    18  H    0.181599
    19  H    0.404673
    20  H    0.412729
    21  H    0.411681
 Sum of Mulliken atomic charges =   0.00000

 Dipole moment (field-independent basis, Debye):
    X=             -2.4395    Y=             -2.9250    Z=              1.5657  Tot=              4.1181
 Quadrupole moment (field-independent basis, Debye-Ang):
   XX=            -69.2570   YY=            -67.3034   ZZ=            -62.7860
   XY=             -3.4887   XZ=             -1.4522   YZ=              3.0329

 Normal termination of Gaussian 09 at Mon Apr 15 18:28:11 2019.
