 Gaussian 09, Revision C.01,
 Gaussian 09:  EM64L-G09RevC.01 23-Sep-2011

 ------------------------------------------------
 # mpw1pw91/6-31+g** nmr scrf=(pcm,solvent=water)
 ------------------------------------------------

 99/9=1/99;
 -------
 comment
 -------
 Charge =  0 Multiplicity = 1

                         Standard orientation:
 ---------------------------------------------------------------------
 Center     Atomic      Atomic             Coordinates (Angstroms)
 Number     Number       Type             X           Y           Z
 ---------------------------------------------------------------------
      1          6           0       -1.499864    0.834544   -0.933017
      2          6           0       -0.856175    1.243381    0.413504
      3          6           0       -1.285285   -0.931787    0.476558
      4          6           0        1.170789   -0.245521    0.758214
      5          6           0        0.200845   -1.369859    0.297275
      6          6           0        0.692131    1.195634    0.418939
      7          8           0       -1.330690    0.221247    1.312407
      8          8           0       -1.889626   -0.534573   -0.732286
      9          8           0        1.261403    1.570576   -0.841247
     10          8           0        2.456764   -0.480472    0.193344
     11          8           0        0.447910   -1.717684   -1.053402
     12          1           0       -0.798455    0.920645   -1.765254
     13          1           0       -2.399618    1.418920   -1.146484
     14          1           0       -1.224461    2.204083    0.776690
     15          1           0       -1.896138   -1.713844    0.931317
     16          1           0        1.259571   -0.313274    1.846226
     17          1           0        0.378457   -2.240126    0.948892
     18          1           0        1.070156    1.868709    1.194720
     19          1           0        1.532825    2.499931   -0.796761
     20          1           0        2.554773    0.215839   -0.489053
     21          1           0        1.422161   -1.691987   -1.119657
 ---------------------------------------------------------------------

 SCF Done:  E(RmPW1PW91) =  -610.640123069     A.U. after   12 cycles

      1  C    Isotropic =   133.1357   Anisotropy =    73.5590

      2  C    Isotropic =   120.7175   Anisotropy =    58.6656

      3  C    Isotropic =    94.6342   Anisotropy =    33.9937

      4  C    Isotropic =   131.4753   Anisotropy =    45.9145

      5  C    Isotropic =   126.1733   Anisotropy =    32.8515

      6  C    Isotropic =   127.5923   Anisotropy =    42.2595

      7  O    Isotropic =   239.8794   Anisotropy =    77.3563

      8  O    Isotropic =   259.9213   Anisotropy =   103.0632

      9  O    Isotropic =   309.0445   Anisotropy =    42.3042

     10  O    Isotropic =   320.1920   Anisotropy =    41.0330

     11  O    Isotropic =   310.2548   Anisotropy =    48.4754

     12  H    Isotropic =    27.0243   Anisotropy =     5.4345

     13  H    Isotropic =    27.7997   Anisotropy =    11.1039

     14  H    Isotropic =    26.8383   Anisotropy =     8.3594

     15  H    Isotropic =    25.9328   Anisotropy =     8.7628

     16  H    Isotropic =    27.6953   Anisotropy =     6.9288

     17  H    Isotropic =    27.6258   Anisotropy =     8.5849

     18  H    Isotropic =    27.0668   Anisotropy =     7.5477

     19  H    Isotropic =    29.5030   Anisotropy =    23.4730

     20  H    Isotropic =    27.4961   Anisotropy =    18.8940

     21  H    Isotropic =    28.6529   Anisotropy =    17.4947

 The electronic state is 1-A.
 Alpha  occ. eigenvalues --  -19.27885 -19.27602 -19.26550 -19.26400 -19.25411
 Alpha  occ. eigenvalues --  -10.35787 -10.32109 -10.31751 -10.31296 -10.30722
 Alpha  occ. eigenvalues --  -10.30042  -1.14146  -1.09499  -1.07063  -1.04859
 Alpha  occ. eigenvalues --   -1.03879  -0.81828  -0.80117  -0.70951  -0.68078
 Alpha  occ. eigenvalues --   -0.64124  -0.60117  -0.57697  -0.55535  -0.53863
 Alpha  occ. eigenvalues --   -0.52618  -0.51586  -0.48824  -0.46467  -0.46357
 Alpha  occ. eigenvalues --   -0.44919  -0.44081  -0.41013  -0.40587  -0.37808
 Alpha  occ. eigenvalues --   -0.37413  -0.36694  -0.34960  -0.34476  -0.32616
 Alpha  occ. eigenvalues --   -0.29724  -0.28681  -0.27968
 Alpha virt. eigenvalues --   -0.00294   0.01273   0.02091   0.02570   0.04211
 Alpha virt. eigenvalues --    0.04710   0.05119   0.05568   0.06195   0.07854
 Alpha virt. eigenvalues --    0.08885   0.09527   0.09985   0.10639   0.11439

 Mulliken atomic charges:
              1
     1  C   -0.176056
     2  C    0.149631
     3  C   -0.143407
     4  C   -0.174034
     5  C    0.300753
     6  C   -0.015286
     7  O   -0.319826
     8  O   -0.341970
     9  O   -0.618555
    10  O   -0.607387
    11  O   -0.553104
    12  H    0.187260
    13  H    0.174486
    14  H    0.195418
    15  H    0.184220
    16  H    0.189906
    17  H    0.161856
    18  H    0.189794
    19  H    0.414629
    20  H    0.409565
    21  H    0.392107
 Sum of Mulliken atomic charges =   0.00000

 Dipole moment (field-independent basis, Debye):
    X=              1.8436    Y=              5.3603    Z=              1.6346  Tot=              5.8995
 Quadrupole moment (field-independent basis, Debye-Ang):
   XX=            -69.5856   YY=            -53.6634   ZZ=            -68.1108
   XY=              2.8874   XZ=             -2.2550   YZ=             -5.4002

 Normal termination of Gaussian 09 at Fri Apr 12 12:16:39 2019.
