 Gaussian 09, Revision C.01,
 Gaussian 09:  EM64L-G09RevC.01 23-Sep-2011

 ------------------------------------------------
 # mpw1pw91/6-31+g** nmr scrf=(pcm,solvent=water)
 ------------------------------------------------

 99/9=1/99;
 -------
 comment
 -------
 Charge =  0 Multiplicity = 1

                         Standard orientation:
 ---------------------------------------------------------------------
 Center     Atomic      Atomic             Coordinates (Angstroms)
 Number     Number       Type             X           Y           Z
 ---------------------------------------------------------------------
      1          6           0       -1.817572    0.584813   -0.807537
      2          6           0       -1.166184    1.040457    0.496854
      3          6           0       -0.967636   -1.176829    0.427266
      4          6           0        1.202083    0.100242    0.776022
      5          6           0        0.577775   -1.266007    0.375822
      6          6           0        0.351764    1.342522    0.370945
      7          8           0       -1.351906   -0.145072    1.308580
      8          8           0       -1.448248   -0.810495   -0.873633
      9          8           0        0.659946    1.734033   -0.959643
     10          8           0        2.494496    0.215311    0.187020
     11          8           0        1.028919   -1.669145   -0.913970
     12          1           0       -1.440549    1.095187   -1.691860
     13          1           0       -2.907916    0.669692   -0.749664
     14          1           0       -1.706693    1.851924    0.984694
     15          1           0       -1.441182   -2.109628    0.740558
     16          1           0        1.319930    0.114838    1.863333
     17          1           0        0.928700   -2.028753    1.076972
     18          1           0        0.607939    2.158952    1.062047
     19          1           0        1.626960    1.607337   -1.020579
     20          1           0        2.479147   -0.431749   -0.549867
     21          1           0        0.386630   -1.276038   -1.538703
 ---------------------------------------------------------------------

 SCF Done:  E(RmPW1PW91) =  -610.646253212     A.U. after   12 cycles

      1  C    Isotropic =   131.0940   Anisotropy =    67.0269

      2  C    Isotropic =   117.8627   Anisotropy =    53.6010

      3  C    Isotropic =    96.3170   Anisotropy =    35.7447

      4  C    Isotropic =   130.9163   Anisotropy =    44.4191

      5  C    Isotropic =   126.8705   Anisotropy =    36.2872

      6  C    Isotropic =   128.5272   Anisotropy =    36.7337

      7  O    Isotropic =   249.8199   Anisotropy =    80.3243

      8  O    Isotropic =   271.2282   Anisotropy =    99.2043

      9  O    Isotropic =   304.6714   Anisotropy =    52.9508

     10  O    Isotropic =   319.4981   Anisotropy =    47.7560

     11  O    Isotropic =   310.3394   Anisotropy =    76.9855

     12  H    Isotropic =    26.8344   Anisotropy =     6.0734

     13  H    Isotropic =    27.9723   Anisotropy =    12.1783

     14  H    Isotropic =    26.6667   Anisotropy =     8.4221

     15  H    Isotropic =    25.9124   Anisotropy =     9.0555

     16  H    Isotropic =    27.8398   Anisotropy =     7.0813

     17  H    Isotropic =    27.7179   Anisotropy =     8.5589

     18  H    Isotropic =    27.3173   Anisotropy =     8.7608

     19  H    Isotropic =    28.3484   Anisotropy =    17.5496

     20  H    Isotropic =    27.7179   Anisotropy =    18.5355

     21  H    Isotropic =    28.7922   Anisotropy =    17.2029

 The electronic state is 1-A.
 Alpha  occ. eigenvalues --  -19.28294 -19.27828 -19.27230 -19.26578 -19.25795
 Alpha  occ. eigenvalues --  -10.36518 -10.32096 -10.31652 -10.31302 -10.31250
 Alpha  occ. eigenvalues --  -10.30569  -1.14870  -1.09385  -1.07251  -1.05065
 Alpha  occ. eigenvalues --   -1.04347  -0.82248  -0.80347  -0.71217  -0.68376
 Alpha  occ. eigenvalues --   -0.64488  -0.60540  -0.58277  -0.55762  -0.53824
 Alpha  occ. eigenvalues --   -0.52756  -0.51397  -0.48986  -0.47473  -0.47258
 Alpha  occ. eigenvalues --   -0.44306  -0.42879  -0.42740  -0.40560  -0.38570
 Alpha  occ. eigenvalues --   -0.37941  -0.37472  -0.36258  -0.33373  -0.33139
 Alpha  occ. eigenvalues --   -0.30169  -0.29555  -0.28202
 Alpha virt. eigenvalues --    0.00105   0.01327   0.02468   0.02539   0.04098
 Alpha virt. eigenvalues --    0.04739   0.05176   0.05558   0.05701   0.08190
 Alpha virt. eigenvalues --    0.08640   0.09722   0.09811   0.10635   0.11437

 Mulliken atomic charges:
              1
     1  C   -0.191514
     2  C    0.204148
     3  C   -0.084425
     4  C   -0.133124
     5  C    0.119754
     6  C    0.041235
     7  O   -0.321053
     8  O   -0.439127
     9  O   -0.565037
    10  O   -0.600273
    11  O   -0.563514
    12  H    0.199231
    13  H    0.178251
    14  H    0.198021
    15  H    0.192429
    16  H    0.190821
    17  H    0.188713
    18  H    0.164768
    19  H    0.399191
    20  H    0.409814
    21  H    0.411691
 Sum of Mulliken atomic charges =   0.00000

 Dipole moment (field-independent basis, Debye):
    X=             -1.5625    Y=              0.7461    Z=              0.9646  Tot=              1.9820
 Quadrupole moment (field-independent basis, Debye-Ang):
   XX=            -68.3450   YY=            -64.9345   ZZ=            -64.9135
   XY=             -2.3260   XZ=             -0.1653   YZ=             -1.0567

 Normal termination of Gaussian 09 at Fri Apr 12 12:08:01 2019.
