 Gaussian 09, Revision C.01,
 Gaussian 09:  EM64L-G09RevC.01 23-Sep-2011

 -----------------------------------------------------------
 # B3LYP/6-31+G** test scrf=(pcm,solvent=water,smd,dovacuum)
 -----------------------------------------------------------

 99/5=1,9=1/99;
 -------
 comment
 -------
 Charge =  0 Multiplicity = 1

                         Standard orientation:
 ---------------------------------------------------------------------
 Center     Atomic      Atomic             Coordinates (Angstroms)
 Number     Number       Type             X           Y           Z
 ---------------------------------------------------------------------
      1          6           0       -0.415048    1.277628    1.228072
      2          6           0       -1.028955    1.140440   -0.174915
      3          6           0        1.164151    0.970552   -0.415082
      4          6           0       -0.160661   -1.243282   -0.415493
      5          6           0        1.190768   -0.528845   -0.753265
      6          6           0       -1.360460   -0.297976   -0.614180
      7          8           0        0.052398    1.592452   -1.016989
      8          8           0        1.007453    1.143600    0.992322
      9          8           0       -2.485643   -0.834902    0.068064
     10          8           0       -0.145645   -1.709382    0.928299
     11          8           0        2.259885   -1.158014   -0.046433
     12          1           0       -0.755184    0.500354    1.912951
     13          1           0       -0.600947    2.267902    1.655239
     14          1           0       -1.882471    1.803142   -0.335732
     15          1           0        2.081046    1.472111   -0.736197
     16          1           0       -0.277763   -2.102900   -1.092517
     17          1           0        1.403990   -0.639323   -1.820747
     18          1           0       -1.551116   -0.243461   -1.695489
     19          1           0       -3.273266   -0.379585   -0.270743
     20          1           0        0.721432   -2.141912    1.026869
     21          1           0        2.287934   -0.717468    0.823436
 ---------------------------------------------------------------------

 SCF Done:  E(RB3LYP) =  -610.804290653     A.U. after   12 cycles

 The electronic state is 1-A.
 Alpha  occ. eigenvalues --  -19.18606 -19.17731 -19.17657 -19.17184 -19.16358
 Alpha  occ. eigenvalues --  -10.29460 -10.24865 -10.24820 -10.24743 -10.24643
 Alpha  occ. eigenvalues --  -10.23749  -1.11331  -1.05579  -1.04180  -1.02037
 Alpha  occ. eigenvalues --   -1.01269  -0.79145  -0.77811  -0.68232  -0.65498
 Alpha  occ. eigenvalues --   -0.62467  -0.58058  -0.55492  -0.53926  -0.52502
 Alpha  occ. eigenvalues --   -0.49977  -0.48471  -0.47165  -0.45598  -0.44143
 Alpha  occ. eigenvalues --   -0.42286  -0.41450  -0.40577  -0.39184  -0.37375
 Alpha  occ. eigenvalues --   -0.36649  -0.36042  -0.33890  -0.31016  -0.30624
 Alpha  occ. eigenvalues --   -0.29599  -0.28036  -0.26010
 Alpha virt. eigenvalues --    0.00157   0.01810   0.02002   0.02618   0.04575
 Alpha virt. eigenvalues --    0.04645   0.05128   0.05394   0.06203   0.08368
 Alpha virt. eigenvalues --    0.09093   0.09699   0.10363   0.10871   0.11963

 Mulliken atomic charges:
              1
     1  C   -0.098203
     2  C    0.285253
     3  C   -0.037860
     4  C    0.270871
     5  C    0.037948
     6  C   -0.165349
     7  O   -0.390469
     8  O   -0.451944
     9  O   -0.631599
    10  O   -0.674225
    11  O   -0.610317
    12  H    0.179239
    13  H    0.163378
    14  H    0.179335
    15  H    0.176830
    16  H    0.150789
    17  H    0.180835
    18  H    0.176181
    19  H    0.424942
    20  H    0.423405
    21  H    0.410961
 Sum of Mulliken atomic charges =   0.00000

 Dipole moment (field-independent basis, Debye):
    X=             -1.8929    Y=              1.9349    Z=             -2.2101  Tot=              3.4944
 Quadrupole moment (field-independent basis, Debye-Ang):
   XX=            -60.2490   YY=            -70.4423   ZZ=            -64.2061
   XY=             -6.6839   XZ=              4.8098   YZ=              4.0194

 Normal termination of Gaussian 09 at Mon Apr 15 18:44:30 2019.
