 Gaussian 09, Revision C.01,
 Gaussian 09:  EM64L-G09RevC.01 23-Sep-2011

 ------------------------------------------------
 # mpw1pw91/6-31+g** nmr scrf=(pcm,solvent=water)
 ------------------------------------------------

 99/9=1/99;
 -------
 comment
 -------
 Charge =  0 Multiplicity = 1

                         Standard orientation:
 ---------------------------------------------------------------------
 Center     Atomic      Atomic             Coordinates (Angstroms)
 Number     Number       Type             X           Y           Z
 ---------------------------------------------------------------------
      1          6           0       -1.044587    1.201023    1.070538
      2          6           0       -1.297031    0.860818   -0.393221
      3          6           0        0.896459    1.210113   -0.207591
      4          6           0        0.254617   -1.194656   -0.391639
      5          6           0        1.378732   -0.176561   -0.669315
      6          6           0       -1.150759   -0.638495   -0.745586
      7          8           0       -0.206992    1.578261   -1.010372
      8          8           0        0.402440    1.147420    1.153755
      9          8           0       -2.154868   -1.423123   -0.123508
     10          8           0        0.304118   -1.593931    0.992957
     11          8           0        2.595848   -0.572335   -0.061113
     12          1           0       -1.473850    0.491122    1.781055
     13          1           0       -1.390592    2.211112    1.311177
     14          1           0       -2.235684    1.261825   -0.778690
     15          1           0        1.673607    1.974839   -0.278505
     16          1           0        0.424850   -2.117814   -0.952251
     17          1           0        1.557169   -0.102963   -1.747746
     18          1           0       -1.285949   -0.720051   -1.830096
     19          1           0       -1.739509   -1.782122    0.683630
     20          1           0        0.368567   -0.763679    1.509090
     21          1           0        2.352440   -1.116049    0.709469
 ---------------------------------------------------------------------

 SCF Done:  E(RmPW1PW91) =  -610.650870897     A.U. after   12 cycles

      1  C    Isotropic =   130.3543   Anisotropy =    65.2579

      2  C    Isotropic =   118.3975   Anisotropy =    57.8409

      3  C    Isotropic =    90.8654   Anisotropy =    29.0035

      4  C    Isotropic =   121.7708   Anisotropy =    37.0423

      5  C    Isotropic =   125.0723   Anisotropy =    43.2051

      6  C    Isotropic =   128.1838   Anisotropy =    47.5302

      7  O    Isotropic =   233.6980   Anisotropy =    75.1889

      8  O    Isotropic =   265.4971   Anisotropy =    95.4533

      9  O    Isotropic =   304.9544   Anisotropy =    26.4746

     10  O    Isotropic =   316.7381   Anisotropy =   101.0230

     11  O    Isotropic =   306.1357   Anisotropy =    30.4521

     12  H    Isotropic =    27.3928   Anisotropy =     6.3308

     13  H    Isotropic =    27.7836   Anisotropy =    11.8191

     14  H    Isotropic =    27.1425   Anisotropy =     7.6467

     15  H    Isotropic =    26.1289   Anisotropy =     7.6177

     16  H    Isotropic =    27.4801   Anisotropy =     9.0830

     17  H    Isotropic =    27.9195   Anisotropy =     6.1991

     18  H    Isotropic =    27.6345   Anisotropy =     6.6889

     19  H    Isotropic =    28.1648   Anisotropy =    15.6469

     20  H    Isotropic =    28.2566   Anisotropy =    20.0304

     21  H    Isotropic =    28.4543   Anisotropy =    15.2311

 The electronic state is 1-A.
 Alpha  occ. eigenvalues --  -19.28376 -19.28235 -19.27671 -19.26559 -19.26407
 Alpha  occ. eigenvalues --  -10.36328 -10.32366 -10.32032 -10.31887 -10.31777
 Alpha  occ. eigenvalues --  -10.31301  -1.14932  -1.09544  -1.07340  -1.05606
 Alpha  occ. eigenvalues --   -1.04588  -0.82535  -0.81372  -0.71150  -0.69189
 Alpha  occ. eigenvalues --   -0.64627  -0.62492  -0.59087  -0.55106  -0.54136
 Alpha  occ. eigenvalues --   -0.52489  -0.51218  -0.49870  -0.47226  -0.47208
 Alpha  occ. eigenvalues --   -0.45304  -0.43905  -0.43013  -0.41384  -0.39038
 Alpha  occ. eigenvalues --   -0.38353  -0.37019  -0.35925  -0.34861  -0.33130
 Alpha  occ. eigenvalues --   -0.31810  -0.29753  -0.27779
 Alpha virt. eigenvalues --    0.00195   0.01935   0.02290   0.02681   0.04370
 Alpha virt. eigenvalues --    0.04695   0.04857   0.04893   0.05548   0.08018
 Alpha virt. eigenvalues --    0.08925   0.09371   0.10520   0.10683   0.11629

 Mulliken atomic charges:
              1
     1  C   -0.125259
     2  C    0.224550
     3  C    0.032028
     4  C    0.161559
     5  C   -0.119037
     6  C   -0.283892
     7  O   -0.324832
     8  O   -0.455282
     9  O   -0.517351
    10  O   -0.641083
    11  O   -0.507115
    12  H    0.189842
    13  H    0.187720
    14  H    0.200245
    15  H    0.189902
    16  H    0.193863
    17  H    0.196867
    18  H    0.191222
    19  H    0.389210
    20  H    0.437060
    21  H    0.379780
 Sum of Mulliken atomic charges =   0.00000

 Dipole moment (field-independent basis, Debye):
    X=             -1.4768    Y=              0.8635    Z=              0.3762  Tot=              1.7516
 Quadrupole moment (field-independent basis, Debye-Ang):
   XX=            -73.7838   YY=            -67.9221   ZZ=            -61.6730
   XY=             -4.2233   XZ=             -2.5576   YZ=              1.2641

 Normal termination of Gaussian 09 at Fri Apr 12 12:05:07 2019.
