 Gaussian 09, Revision C.01,
 Gaussian 09:  EM64L-G09RevC.01 23-Sep-2011

 -----------------------------------------------------------
 # B3LYP/6-31+G** test scrf=(pcm,solvent=water,smd,dovacuum)
 -----------------------------------------------------------

 99/5=1,9=1/99;
 -------
 comment
 -------
 Charge =  0 Multiplicity = 1

                         Standard orientation:
 ---------------------------------------------------------------------
 Center     Atomic      Atomic             Coordinates (Angstroms)
 Number     Number       Type             X           Y           Z
 ---------------------------------------------------------------------
      1          6           0       -0.522404    1.343533    1.154651
      2          6           0       -1.011881    1.150165   -0.289861
      3          6           0        1.199018    0.962493   -0.320017
      4          6           0       -0.095875   -1.236306   -0.429827
      5          6           0        1.260421   -0.532571   -0.681411
      6          6           0       -1.309015   -0.301727   -0.689397
      7          8           0        0.139624    1.568337   -1.043734
      8          8           0        0.903791    1.164333    1.056876
      9          8           0       -2.434858   -0.754561    0.070934
     10          8           0       -0.107300   -1.673008    0.928124
     11          8           0        2.305595   -1.189210    0.015993
     12          1           0       -0.943008    0.620302    1.855549
     13          1           0       -0.729202    2.359217    1.508759
     14          1           0       -1.851815    1.797005   -0.549334
     15          1           0        2.137205    1.468812   -0.562927
     16          1           0       -0.171312   -2.114656   -1.088708
     17          1           0        1.502663   -0.593007   -1.747787
     18          1           0       -1.541174   -0.300486   -1.760171
     19          1           0       -2.887870   -1.448871   -0.434895
     20          1           0       -1.052322   -1.712813    1.171031
     21          1           0        1.960432   -1.316150    0.918118
 ---------------------------------------------------------------------

 SCF Done:  E(RB3LYP) =  -610.807252587     A.U. after   12 cycles

 The electronic state is 1-A.
 Alpha  occ. eigenvalues --  -19.18453 -19.17870 -19.17411 -19.16984 -19.16464
 Alpha  occ. eigenvalues --  -10.29083 -10.25083 -10.25029 -10.24611 -10.24502
 Alpha  occ. eigenvalues --  -10.23743  -1.11110  -1.05781  -1.04219  -1.01792
 Alpha  occ. eigenvalues --   -1.01207  -0.79207  -0.77711  -0.68068  -0.65929
 Alpha  occ. eigenvalues --   -0.61850  -0.58883  -0.55161  -0.53582  -0.52916
 Alpha  occ. eigenvalues --   -0.49878  -0.48505  -0.46950  -0.45491  -0.44317
 Alpha  occ. eigenvalues --   -0.42570  -0.41696  -0.41237  -0.38162  -0.36897
 Alpha  occ. eigenvalues --   -0.36279  -0.35275  -0.34578  -0.32389  -0.30263
 Alpha  occ. eigenvalues --   -0.29526  -0.28155  -0.25615
 Alpha virt. eigenvalues --    0.00108   0.01817   0.02221   0.02612   0.04655
 Alpha virt. eigenvalues --    0.04857   0.05038   0.05244   0.06161   0.08434
 Alpha virt. eigenvalues --    0.09101   0.09552   0.10732   0.10915   0.12005

 Mulliken atomic charges:
              1
     1  C   -0.106914
     2  C    0.211823
     3  C    0.062328
     4  C    0.280731
     5  C    0.013974
     6  C   -0.179989
     7  O   -0.389365
     8  O   -0.443160
     9  O   -0.656396
    10  O   -0.683344
    11  O   -0.571953
    12  H    0.175545
    13  H    0.162575
    14  H    0.181806
    15  H    0.168520
    16  H    0.149901
    17  H    0.178721
    18  H    0.181775
    19  H    0.431438
    20  H    0.427376
    21  H    0.404608
 Sum of Mulliken atomic charges =   0.00000

 Dipole moment (field-independent basis, Debye):
    X=             -5.9624    Y=             -1.0006    Z=             -2.4997  Tot=              6.5422
 Quadrupole moment (field-independent basis, Debye-Ang):
   XX=            -66.0257   YY=            -66.2641   ZZ=            -63.5741
   XY=              7.0161   XZ=              1.0424   YZ=              4.2043

 Normal termination of Gaussian 09 at Mon Apr 15 18:50:50 2019.
