 Gaussian 09, Revision C.01,
 Gaussian 09:  EM64L-G09RevC.01 23-Sep-2011

 -----------------------------------------------------------
 # B3LYP/6-31+G** test scrf=(pcm,solvent=water,smd,dovacuum)
 -----------------------------------------------------------

 99/5=1,9=1/99;
 -------
 comment
 -------
 Charge =  0 Multiplicity = 1

                         Standard orientation:
 ---------------------------------------------------------------------
 Center     Atomic      Atomic             Coordinates (Angstroms)
 Number     Number       Type             X           Y           Z
 ---------------------------------------------------------------------
      1          6           0       -0.996353    1.209225    1.091457
      2          6           0       -1.294404    0.853507   -0.359488
      3          6           0        0.900516    1.198015   -0.253891
      4          6           0        0.241957   -1.215532   -0.330110
      5          6           0        1.355468   -0.204176   -0.698460
      6          6           0       -1.156423   -0.651035   -0.687234
      7          8           0       -0.227686    1.559867   -1.025106
      8          8           0        0.453509    1.179376    1.124251
      9          8           0       -2.135532   -1.434244   -0.019459
     10          8           0        0.394281   -1.576606    1.048384
     11          8           0        2.590888   -0.588550   -0.122790
     12          1           0       -1.392830    0.489753    1.811343
     13          1           0       -1.348993    2.214946    1.341045
     14          1           0       -2.244585    1.251859   -0.721693
     15          1           0        1.681808    1.952952   -0.370906
     16          1           0        0.384905   -2.151793   -0.877238
     17          1           0        1.490957   -0.161458   -1.784994
     18          1           0       -1.258739   -0.739430   -1.778326
     19          1           0       -2.989744   -1.265341   -0.448988
     20          1           0        0.415031   -0.737516    1.548085
     21          1           0        2.353941   -1.112740    0.665786
 ---------------------------------------------------------------------

 SCF Done:  E(RB3LYP) =  -610.805890068     A.U. after   12 cycles

 The electronic state is 1-A.
 Alpha  occ. eigenvalues --  -19.18695 -19.18200 -19.17285 -19.17077 -19.16941
 Alpha  occ. eigenvalues --  -10.29458 -10.25075 -10.25058 -10.25040 -10.24682
 Alpha  occ. eigenvalues --  -10.24129  -1.11343  -1.05652  -1.04080  -1.02228
 Alpha  occ. eigenvalues --   -1.01252  -0.79312  -0.78222  -0.68099  -0.65930
 Alpha  occ. eigenvalues --   -0.62330  -0.59527  -0.56165  -0.53587  -0.51059
 Alpha  occ. eigenvalues --   -0.50116  -0.48288  -0.47044  -0.46931  -0.44491
 Alpha  occ. eigenvalues --   -0.42989  -0.42028  -0.40415  -0.38481  -0.37962
 Alpha  occ. eigenvalues --   -0.36694  -0.34974  -0.34200  -0.32685  -0.30922
 Alpha  occ. eigenvalues --   -0.29591  -0.28106  -0.26126
 Alpha virt. eigenvalues --    0.00202   0.02134   0.02268   0.02633   0.04516
 Alpha virt. eigenvalues --    0.04703   0.04984   0.05305   0.05832   0.08431
 Alpha virt. eigenvalues --    0.09030   0.09511   0.10545   0.10768   0.11880

 Mulliken atomic charges:
              1
     1  C   -0.075852
     2  C    0.214992
     3  C    0.109835
     4  C    0.119886
     5  C    0.011478
     6  C   -0.136759
     7  O   -0.402456
     8  O   -0.501190
     9  O   -0.617454
    10  O   -0.634522
    11  O   -0.585877
    12  H    0.184718
    13  H    0.170400
    14  H    0.184089
    15  H    0.172269
    16  H    0.166380
    17  H    0.181173
    18  H    0.177328
    19  H    0.424759
    20  H    0.433140
    21  H    0.403665
 Sum of Mulliken atomic charges =   0.00000

 Dipole moment (field-independent basis, Debye):
    X=             -4.8864    Y=              1.7887    Z=             -2.1004  Tot=              5.6114
 Quadrupole moment (field-independent basis, Debye-Ang):
   XX=            -62.3350   YY=            -72.9146   ZZ=            -63.5445
   XY=             -2.2577   XZ=              3.2670   YZ=              5.9874

 Normal termination of Gaussian 09 at Mon Apr 15 18:50:25 2019.
