 Gaussian 09, Revision C.01,
 Gaussian 09:  EM64L-G09RevC.01 23-Sep-2011

 ------------------------------------------------
 # mpw1pw91/6-31+g** nmr scrf=(pcm,solvent=water)
 ------------------------------------------------

 99/9=1/99;
 -------
 comment
 -------
 Charge =  0 Multiplicity = 1

                         Standard orientation:
 ---------------------------------------------------------------------
 Center     Atomic      Atomic             Coordinates (Angstroms)
 Number     Number       Type             X           Y           Z
 ---------------------------------------------------------------------
      1          6           0       -0.602079    1.301905    1.178383
      2          6           0       -1.075426    1.119801   -0.270461
      3          6           0        1.141994    1.033039   -0.298842
      4          6           0       -0.052336   -1.214891   -0.456527
      5          6           0        1.272982   -0.446339   -0.700719
      6          6           0       -1.307852   -0.341640   -0.704903
      7          8           0        0.061403    1.613929   -1.006248
      8          8           0        0.830650    1.164479    1.085726
      9          8           0       -2.440871   -0.911882   -0.073750
     10          8           0       -0.100783   -1.651461    0.919564
     11          8           0        2.345902   -1.073150   -0.020778
     12          1           0       -1.004236    0.552732    1.863779
     13          1           0       -0.840390    2.303377    1.552838
     14          1           0       -1.942707    1.733620   -0.520607
     15          1           0        2.058367    1.588826   -0.515763
     16          1           0       -0.089237   -2.095156   -1.105642
     17          1           0        1.511950   -0.474823   -1.768942
     18          1           0       -1.504892   -0.318692   -1.782413
     19          1           0       -2.086728   -1.343645    0.727078
     20          1           0        0.038632   -2.610172    0.938893
     21          1           0        2.025151   -1.182645    0.893083
 ---------------------------------------------------------------------

 SCF Done:  E(RmPW1PW91) =  -610.651367223     A.U. after   12 cycles

      1  C    Isotropic =   131.0962   Anisotropy =    67.5231

      2  C    Isotropic =   119.0850   Anisotropy =    58.7634

      3  C    Isotropic =    92.7963   Anisotropy =    26.0922

      4  C    Isotropic =   123.1722   Anisotropy =    38.5891

      5  C    Isotropic =   125.6637   Anisotropy =    39.4813

      6  C    Isotropic =   128.1131   Anisotropy =    47.9664

      7  O    Isotropic =   233.7287   Anisotropy =    69.9538

      8  O    Isotropic =   272.6600   Anisotropy =    93.7692

      9  O    Isotropic =   305.1273   Anisotropy =    25.7635

     10  O    Isotropic =   319.1265   Anisotropy =    41.3362

     11  O    Isotropic =   304.2948   Anisotropy =    26.0115

     12  H    Isotropic =    27.3725   Anisotropy =     5.0228

     13  H    Isotropic =    27.7881   Anisotropy =    11.5748

     14  H    Isotropic =    27.2624   Anisotropy =     7.6526

     15  H    Isotropic =    26.2694   Anisotropy =     7.9935

     16  H    Isotropic =    27.3223   Anisotropy =     9.0480

     17  H    Isotropic =    28.0837   Anisotropy =     6.3526

     18  H    Isotropic =    27.6920   Anisotropy =     6.4566

     19  H    Isotropic =    27.9901   Anisotropy =    15.9458

     20  H    Isotropic =    29.4656   Anisotropy =    23.5388

     21  H    Isotropic =    28.5914   Anisotropy =    14.3217

 The electronic state is 1-A.
 Alpha  occ. eigenvalues --  -19.27883 -19.27778 -19.26693 -19.26221 -19.26099
 Alpha  occ. eigenvalues --  -10.35556 -10.32213 -10.31487 -10.31464 -10.31210
 Alpha  occ. eigenvalues --  -10.30370  -1.14173  -1.09404  -1.07067  -1.05329
 Alpha  occ. eigenvalues --   -1.03941  -0.81854  -0.80969  -0.70637  -0.68506
 Alpha  occ. eigenvalues --   -0.63917  -0.61845  -0.57836  -0.55566  -0.54089
 Alpha  occ. eigenvalues --   -0.53637  -0.50210  -0.48110  -0.47382  -0.46055
 Alpha  occ. eigenvalues --   -0.44738  -0.43439  -0.42995  -0.39390  -0.38592
 Alpha  occ. eigenvalues --   -0.37760  -0.37510  -0.35476  -0.34629  -0.32564
 Alpha  occ. eigenvalues --   -0.31178  -0.29005  -0.27200
 Alpha virt. eigenvalues --   -0.00164   0.01765   0.02346   0.02643   0.04466
 Alpha virt. eigenvalues --    0.04690   0.04874   0.04989   0.05938   0.08326
 Alpha virt. eigenvalues --    0.08726   0.09255   0.10578   0.10760   0.12037

 Mulliken atomic charges:
              1
     1  C   -0.147949
     2  C    0.244653
     3  C   -0.086167
     4  C    0.277397
     5  C   -0.020104
     6  C   -0.317202
     7  O   -0.319656
     8  O   -0.375443
     9  O   -0.531175
    10  O   -0.732317
    11  O   -0.509484
    12  H    0.182586
    13  H    0.174826
    14  H    0.194610
    15  H    0.183733
    16  H    0.190086
    17  H    0.190368
    18  H    0.189433
    19  H    0.389211
    20  H    0.435191
    21  H    0.387406
 Sum of Mulliken atomic charges =   0.00000

 Dipole moment (field-independent basis, Debye):
    X=             -1.2576    Y=             -2.3838    Z=              0.0537  Tot=              2.6957
 Quadrupole moment (field-independent basis, Debye-Ang):
   XX=            -76.6349   YY=            -58.1790   ZZ=            -62.7848
   XY=             -1.8681   XZ=             -2.9386   YZ=             -1.1805

 Normal termination of Gaussian 09 at Fri Apr 12 12:04:47 2019.
