 Gaussian 09, Revision C.01,
 Gaussian 09:  EM64L-G09RevC.01 23-Sep-2011

 -----------------------------------------------------------
 # B3LYP/6-31+G** test scrf=(pcm,solvent=water,smd,dovacuum)
 -----------------------------------------------------------

 99/5=1,9=1/99;
 -------
 comment
 -------
 Charge =  0 Multiplicity = 1

                         Standard orientation:
 ---------------------------------------------------------------------
 Center     Atomic      Atomic             Coordinates (Angstroms)
 Number     Number       Type             X           Y           Z
 ---------------------------------------------------------------------
      1          6           0       -1.864794   -0.659564    0.710503
      2          6           0       -1.073331   -1.111797   -0.514804
      3          6           0       -0.994845    1.110449   -0.501707
      4          6           0        1.223680   -0.052586   -0.732076
      5          6           0        0.545594    1.273646   -0.311464
      6          6           0        0.448733   -1.300552   -0.246485
      7          8           0       -1.264148    0.036807   -1.378051
      8          8           0       -1.583145    0.756005    0.759561
      9          8           0        0.696711   -1.499466    1.141503
     10          8           0        2.545315   -0.074940   -0.187881
     11          8           0        0.844742    1.681166    1.010084
     12          1           0       -1.540604   -1.119784    1.642186
     13          1           0       -2.938650   -0.813248    0.558541
     14          1           0       -1.512158   -1.971240   -1.021743
     15          1           0       -1.477623    2.012397   -0.883419
     16          1           0        1.260071   -0.071874   -1.826434
     17          1           0        0.914147    2.065270   -0.971964
     18          1           0        0.806107   -2.174721   -0.812136
     19          1           0        1.615351   -1.188678    1.264575
     20          1           0        3.061884   -0.717599   -0.701920
     21          1           0        0.185452    1.225324    1.566775
 ---------------------------------------------------------------------

 SCF Done:  E(RB3LYP) =  -610.798522404     A.U. after   12 cycles

 The electronic state is 1-A.
 Alpha  occ. eigenvalues --  -19.18556 -19.17947 -19.17528 -19.16534 -19.16338
 Alpha  occ. eigenvalues --  -10.29609 -10.25177 -10.24507 -10.24483 -10.24449
 Alpha  occ. eigenvalues --  -10.23767  -1.11325  -1.05520  -1.03591  -1.02156
 Alpha  occ. eigenvalues --   -1.01074  -0.79011  -0.77531  -0.68214  -0.65734
 Alpha  occ. eigenvalues --   -0.61705  -0.57647  -0.55510  -0.54390  -0.51946
 Alpha  occ. eigenvalues --   -0.50602  -0.48174  -0.46287  -0.45578  -0.44755
 Alpha  occ. eigenvalues --   -0.42946  -0.41651  -0.40031  -0.37873  -0.37073
 Alpha  occ. eigenvalues --   -0.36561  -0.35393  -0.34473  -0.31911  -0.30793
 Alpha  occ. eigenvalues --   -0.28348  -0.28071  -0.26138
 Alpha virt. eigenvalues --   -0.00009   0.01616   0.02348   0.02653   0.04137
 Alpha virt. eigenvalues --    0.04669   0.05377   0.05536   0.06033   0.08120
 Alpha virt. eigenvalues --    0.08664   0.09631   0.10052   0.10932   0.11642

 Mulliken atomic charges:
              1
     1  C   -0.138094
     2  C    0.253454
     3  C    0.066367
     4  C   -0.032590
     5  C    0.103658
     6  C    0.067469
     7  O   -0.419298
     8  O   -0.494946
     9  O   -0.628732
    10  O   -0.653678
    11  O   -0.583355
    12  H    0.180089
    13  H    0.164289
    14  H    0.182448
    15  H    0.175828
    16  H    0.183574
    17  H    0.164468
    18  H    0.150274
    19  H    0.413332
    20  H    0.431590
    21  H    0.413853
 Sum of Mulliken atomic charges =   0.00000

 Dipole moment (field-independent basis, Debye):
    X=              0.0142    Y=             -3.8562    Z=             -3.8601  Tot=              5.4563
 Quadrupole moment (field-independent basis, Debye-Ang):
   XX=            -62.6553   YY=            -65.3235   ZZ=            -66.6367
   XY=             -4.5970   XZ=             -7.2591   YZ=             -1.0439

 Normal termination of Gaussian 09 at Mon Apr 15 18:47:42 2019.
