 Gaussian 09, Revision C.01,
 Gaussian 09:  EM64L-G09RevC.01 23-Sep-2011

 ------------------------------------------------
 # mpw1pw91/6-31+g** nmr scrf=(pcm,solvent=water)
 ------------------------------------------------

 99/9=1/99;
 -------
 comment
 -------
 Charge =  0 Multiplicity = 1

                         Standard orientation:
 ---------------------------------------------------------------------
 Center     Atomic      Atomic             Coordinates (Angstroms)
 Number     Number       Type             X           Y           Z
 ---------------------------------------------------------------------
      1          6           0       -1.958024   -0.581005    0.670914
      2          6           0       -1.174794   -1.004498   -0.565669
      3          6           0       -0.924802    1.190949   -0.389729
      4          6           0        1.193038   -0.136431   -0.805606
      5          6           0        0.627124    1.219530   -0.304260
      6          6           0        0.334924   -1.294818   -0.262521
      7          8           0       -1.283114    0.209786   -1.347938
      8          8           0       -1.518966    0.780900    0.843320
      9          8           0        0.637164   -1.470019    1.128830
     10          8           0        2.545192   -0.281300   -0.378362
     11          8           0        1.032206    1.448572    1.043514
     12          1           0       -1.719711   -1.150585    1.569634
     13          1           0       -3.037012   -0.612820    0.481090
     14          1           0       -1.640959   -1.804445   -1.140820
     15          1           0       -1.346666    2.151584   -0.694026
     16          1           0        1.182647   -0.148380   -1.897913
     17          1           0        0.999522    2.025005   -0.952336
     18          1           0        0.634346   -2.234797   -0.733076
     19          1           0        0.537114   -0.592132    1.550920
     20          1           0        2.504091   -0.846218    0.416921
     21          1           0        2.001979    1.346916    1.025922
 ---------------------------------------------------------------------

 SCF Done:  E(RmPW1PW91) =  -610.640351381     A.U. after   12 cycles

      1  C    Isotropic =   130.7430   Anisotropy =    61.3903

      2  C    Isotropic =   117.8733   Anisotropy =    50.1351

      3  C    Isotropic =    96.1117   Anisotropy =    35.2879

      4  C    Isotropic =   130.0281   Anisotropy =    51.5220

      5  C    Isotropic =   124.8743   Anisotropy =    32.5001

      6  C    Isotropic =   122.4233   Anisotropy =    36.3838

      7  O    Isotropic =   243.7361   Anisotropy =    76.9921

      8  O    Isotropic =   271.3008   Anisotropy =   109.2945

      9  O    Isotropic =   295.8169   Anisotropy =    76.2764

     10  O    Isotropic =   315.7681   Anisotropy =    40.1511

     11  O    Isotropic =   305.0944   Anisotropy =    46.4510

     12  H    Isotropic =    27.0389   Anisotropy =     6.7542

     13  H    Isotropic =    27.9122   Anisotropy =    12.1694

     14  H    Isotropic =    26.7496   Anisotropy =     8.3232

     15  H    Isotropic =    25.8424   Anisotropy =     8.8661

     16  H    Isotropic =    27.6970   Anisotropy =     6.1805

     17  H    Isotropic =    27.5929   Anisotropy =     8.2912

     18  H    Isotropic =    27.3836   Anisotropy =     8.1818

     19  H    Isotropic =    28.9703   Anisotropy =    15.4322

     20  H    Isotropic =    28.5256   Anisotropy =    16.3611

     21  H    Isotropic =    28.8682   Anisotropy =    17.6140

 The electronic state is 1-A.
 Alpha  occ. eigenvalues --  -19.27975 -19.26992 -19.26965 -19.26828 -19.26660
 Alpha  occ. eigenvalues --  -10.36265 -10.32121 -10.31984 -10.31381 -10.31337
 Alpha  occ. eigenvalues --  -10.30579  -1.14580  -1.09524  -1.06855  -1.05432
 Alpha  occ. eigenvalues --   -1.04087  -0.82098  -0.80795  -0.71153  -0.68423
 Alpha  occ. eigenvalues --   -0.64418  -0.60355  -0.58418  -0.55199  -0.54873
 Alpha  occ. eigenvalues --   -0.53303  -0.50507  -0.48861  -0.46971  -0.45745
 Alpha  occ. eigenvalues --   -0.45047  -0.44779  -0.42142  -0.40837  -0.38985
 Alpha  occ. eigenvalues --   -0.37633  -0.36676  -0.36010  -0.34264  -0.32909
 Alpha  occ. eigenvalues --   -0.30296  -0.28938  -0.28298
 Alpha virt. eigenvalues --   -0.00016   0.01413   0.02449   0.02599   0.04324
 Alpha virt. eigenvalues --    0.04622   0.05160   0.05430   0.05600   0.07958
 Alpha virt. eigenvalues --    0.08120   0.09295   0.09821   0.10610   0.11542

 Mulliken atomic charges:
              1
     1  C   -0.221982
     2  C    0.278341
     3  C   -0.139829
     4  C   -0.163718
     5  C    0.286277
     6  C   -0.087028
     7  O   -0.347267
     8  O   -0.403203
     9  O   -0.578039
    10  O   -0.586015
    11  O   -0.580131
    12  H    0.192221
    13  H    0.178070
    14  H    0.197578
    15  H    0.186816
    16  H    0.197859
    17  H    0.175104
    18  H    0.185847
    19  H    0.419862
    20  H    0.401411
    21  H    0.407826
 Sum of Mulliken atomic charges =   0.00000

 Dipole moment (field-independent basis, Debye):
    X=             -0.5733    Y=             -1.4001    Z=             -1.4446  Tot=              2.0919
 Quadrupole moment (field-independent basis, Debye-Ang):
   XX=            -65.9404   YY=            -62.5991   ZZ=            -68.0350
   XY=              5.2700   XZ=              2.2447   YZ=             -1.3032

 Normal termination of Gaussian 09 at Fri Apr 12 12:10:44 2019.
