 Gaussian 09, Revision C.01,
 Gaussian 09:  EM64L-G09RevC.01 23-Sep-2011

 ------------------------------------------------
 # mpw1pw91/6-31+g** nmr scrf=(pcm,solvent=water)
 ------------------------------------------------

 99/9=1/99;
 -------
 comment
 -------
 Charge =  0 Multiplicity = 1

                         Standard orientation:
 ---------------------------------------------------------------------
 Center     Atomic      Atomic             Coordinates (Angstroms)
 Number     Number       Type             X           Y           Z
 ---------------------------------------------------------------------
      1          6           0       -1.864794   -0.659564    0.710503
      2          6           0       -1.073331   -1.111797   -0.514804
      3          6           0       -0.994845    1.110449   -0.501707
      4          6           0        1.223680   -0.052586   -0.732076
      5          6           0        0.545594    1.273646   -0.311464
      6          6           0        0.448733   -1.300552   -0.246485
      7          8           0       -1.264148    0.036807   -1.378051
      8          8           0       -1.583145    0.756005    0.759561
      9          8           0        0.696711   -1.499466    1.141503
     10          8           0        2.545315   -0.074940   -0.187881
     11          8           0        0.844742    1.681166    1.010084
     12          1           0       -1.540604   -1.119784    1.642186
     13          1           0       -2.938650   -0.813248    0.558541
     14          1           0       -1.512158   -1.971240   -1.021743
     15          1           0       -1.477623    2.012397   -0.883419
     16          1           0        1.260071   -0.071874   -1.826434
     17          1           0        0.914147    2.065270   -0.971964
     18          1           0        0.806107   -2.174721   -0.812136
     19          1           0        1.615351   -1.188678    1.264575
     20          1           0        3.061884   -0.717599   -0.701920
     21          1           0        0.185452    1.225324    1.566775
 ---------------------------------------------------------------------

 SCF Done:  E(RmPW1PW91) =  -610.641731751     A.U. after   12 cycles

      1  C    Isotropic =   131.1441   Anisotropy =    65.5605

      2  C    Isotropic =   117.6658   Anisotropy =    52.7983

      3  C    Isotropic =    95.5188   Anisotropy =    35.3713

      4  C    Isotropic =   127.9296   Anisotropy =    45.6518

      5  C    Isotropic =   125.8827   Anisotropy =    33.8502

      6  C    Isotropic =   125.9002   Anisotropy =    33.0395

      7  O    Isotropic =   247.0435   Anisotropy =    72.3974

      8  O    Isotropic =   270.9547   Anisotropy =    99.6281

      9  O    Isotropic =   303.9262   Anisotropy =    40.1049

     10  O    Isotropic =   314.6919   Anisotropy =    91.9860

     11  O    Isotropic =   310.5004   Anisotropy =    69.7062

     12  H    Isotropic =    26.8228   Anisotropy =     6.2094

     13  H    Isotropic =    27.9784   Anisotropy =    12.1273

     14  H    Isotropic =    26.7108   Anisotropy =     8.3565

     15  H    Isotropic =    25.9716   Anisotropy =     9.0123

     16  H    Isotropic =    27.7032   Anisotropy =     5.3000

     17  H    Isotropic =    27.6249   Anisotropy =     7.8417

     18  H    Isotropic =    27.3770   Anisotropy =     8.5237

     19  H    Isotropic =    28.0769   Anisotropy =    17.0185

     20  H    Isotropic =    30.1990   Anisotropy =    22.0489

     21  H    Isotropic =    28.9388   Anisotropy =    16.2086

 The electronic state is 1-A.
 Alpha  occ. eigenvalues --  -19.28069 -19.27536 -19.27239 -19.25702 -19.25483
 Alpha  occ. eigenvalues --  -10.36199 -10.32050 -10.31373 -10.31297 -10.31115
 Alpha  occ. eigenvalues --  -10.30465  -1.14619  -1.08829  -1.06427  -1.05328
 Alpha  occ. eigenvalues --   -1.04074  -0.81987  -0.80478  -0.70912  -0.68390
 Alpha  occ. eigenvalues --   -0.64100  -0.59904  -0.57765  -0.56612  -0.54042
 Alpha  occ. eigenvalues --   -0.52801  -0.50138  -0.48208  -0.47589  -0.46678
 Alpha  occ. eigenvalues --   -0.44820  -0.43432  -0.41753  -0.39367  -0.38658
 Alpha  occ. eigenvalues --   -0.38135  -0.36990  -0.36053  -0.33557  -0.32124
 Alpha  occ. eigenvalues --   -0.29942  -0.29581  -0.27478
 Alpha virt. eigenvalues --   -0.00076   0.01536   0.02204   0.02529   0.04036
 Alpha virt. eigenvalues --    0.04532   0.05138   0.05474   0.05888   0.07983
 Alpha virt. eigenvalues --    0.08538   0.09526   0.09836   0.10733   0.11405

 Mulliken atomic charges:
              1
     1  C   -0.204838
     2  C    0.234386
     3  C   -0.045789
     4  C   -0.142831
     5  C    0.096709
     6  C    0.025066
     7  O   -0.343703
     8  O   -0.441131
     9  O   -0.566367
    10  O   -0.591254
    11  O   -0.518267
    12  H    0.196842
    13  H    0.176603
    14  H    0.196465
    15  H    0.189201
    16  H    0.195125
    17  H    0.174001
    18  H    0.164018
    19  H    0.397751
    20  H    0.409418
    21  H    0.398596
 Sum of Mulliken atomic charges =   0.00000

 Dipole moment (field-independent basis, Debye):
    X=              0.0002    Y=             -3.4933    Z=             -3.4352  Tot=              4.8993
 Quadrupole moment (field-independent basis, Debye-Ang):
   XX=            -61.8987   YY=            -64.6883   ZZ=            -65.8484
   XY=             -4.1098   XZ=             -6.5872   YZ=             -1.0609

 Normal termination of Gaussian 09 at Fri Apr 12 12:12:12 2019.
