 Gaussian 09, Revision C.01,
 Gaussian 09:  EM64L-G09RevC.01 23-Sep-2011

 -----------------------------------------------------------
 # B3LYP/6-31+G** test scrf=(pcm,solvent=water,smd,dovacuum)
 -----------------------------------------------------------

 99/5=1,9=1/99;
 -------
 comment
 -------
 Charge =  0 Multiplicity = 1

                         Standard orientation:
 ---------------------------------------------------------------------
 Center     Atomic      Atomic             Coordinates (Angstroms)
 Number     Number       Type             X           Y           Z
 ---------------------------------------------------------------------
      1          6           0       -0.602079    1.301905    1.178383
      2          6           0       -1.075426    1.119801   -0.270461
      3          6           0        1.141994    1.033039   -0.298842
      4          6           0       -0.052336   -1.214891   -0.456527
      5          6           0        1.272982   -0.446339   -0.700719
      6          6           0       -1.307852   -0.341640   -0.704903
      7          8           0        0.061403    1.613929   -1.006248
      8          8           0        0.830650    1.164479    1.085726
      9          8           0       -2.440871   -0.911882   -0.073750
     10          8           0       -0.100783   -1.651461    0.919564
     11          8           0        2.345902   -1.073150   -0.020778
     12          1           0       -1.004236    0.552732    1.863779
     13          1           0       -0.840390    2.303377    1.552838
     14          1           0       -1.942707    1.733620   -0.520607
     15          1           0        2.058367    1.588826   -0.515763
     16          1           0       -0.089237   -2.095156   -1.105642
     17          1           0        1.511950   -0.474823   -1.768942
     18          1           0       -1.504892   -0.318692   -1.782413
     19          1           0       -2.086728   -1.343645    0.727078
     20          1           0        0.038632   -2.610172    0.938893
     21          1           0        2.025151   -1.182645    0.893083
 ---------------------------------------------------------------------

 SCF Done:  E(RB3LYP) =  -610.808839583     A.U. after   12 cycles

 The electronic state is 1-A.
 Alpha  occ. eigenvalues --  -19.18404 -19.17619 -19.17389 -19.17028 -19.16792
 Alpha  occ. eigenvalues --  -10.29079 -10.25097 -10.24710 -10.24640 -10.24495
 Alpha  occ. eigenvalues --  -10.23701  -1.11027  -1.05814  -1.04038  -1.01947
 Alpha  occ. eigenvalues --   -1.01104  -0.78915  -0.77932  -0.67968  -0.65783
 Alpha  occ. eigenvalues --   -0.61553  -0.59442  -0.55432  -0.53183  -0.51945
 Alpha  occ. eigenvalues --   -0.51634  -0.48196  -0.46037  -0.45326  -0.44092
 Alpha  occ. eigenvalues --   -0.42969  -0.41613  -0.41159  -0.37742  -0.37071
 Alpha  occ. eigenvalues --   -0.36206  -0.35700  -0.33634  -0.33123  -0.30789
 Alpha  occ. eigenvalues --   -0.29662  -0.27580  -0.25886
 Alpha virt. eigenvalues --   -0.00038   0.01861   0.02511   0.02752   0.04603
 Alpha virt. eigenvalues --    0.04814   0.05098   0.05142   0.06080   0.08408
 Alpha virt. eigenvalues --    0.08915   0.09411   0.10784   0.10913   0.12209

 Mulliken atomic charges:
              1
     1  C   -0.106851
     2  C    0.275137
     3  C    0.028602
     4  C    0.274471
     5  C    0.030097
     6  C   -0.209389
     7  O   -0.393361
     8  O   -0.447504
     9  O   -0.595804
    10  O   -0.760058
    11  O   -0.572394
    12  H    0.175977
    13  H    0.162051
    14  H    0.178985
    15  H    0.168515
    16  H    0.173515
    17  H    0.180016
    18  H    0.175608
    19  H    0.408156
    20  H    0.450953
    21  H    0.403277
 Sum of Mulliken atomic charges =   0.00000

 Dipole moment (field-independent basis, Debye):
    X=             -1.4234    Y=             -2.6309    Z=             -0.0212  Tot=              2.9913
 Quadrupole moment (field-independent basis, Debye-Ang):
   XX=            -78.4315   YY=            -58.3770   ZZ=            -63.3639
   XY=             -2.0412   XZ=             -3.2628   YZ=             -1.1521

 Normal termination of Gaussian 09 at Mon Apr 15 18:34:42 2019.
