 Gaussian 09, Revision C.01,
 Gaussian 09:  EM64L-G09RevC.01 23-Sep-2011

 ------------------------------------------------
 # mpw1pw91/6-31+g** nmr scrf=(pcm,solvent=water)
 ------------------------------------------------

 99/9=1/99;
 -------
 comment
 -------
 Charge =  0 Multiplicity = 1

                         Standard orientation:
 ---------------------------------------------------------------------
 Center     Atomic      Atomic             Coordinates (Angstroms)
 Number     Number       Type             X           Y           Z
 ---------------------------------------------------------------------
      1          6           0       -0.522404    1.343533    1.154651
      2          6           0       -1.011881    1.150165   -0.289861
      3          6           0        1.199018    0.962493   -0.320017
      4          6           0       -0.095875   -1.236306   -0.429827
      5          6           0        1.260421   -0.532571   -0.681411
      6          6           0       -1.309015   -0.301727   -0.689397
      7          8           0        0.139624    1.568337   -1.043734
      8          8           0        0.903791    1.164333    1.056876
      9          8           0       -2.434858   -0.754561    0.070934
     10          8           0       -0.107300   -1.673008    0.928124
     11          8           0        2.305595   -1.189210    0.015993
     12          1           0       -0.943008    0.620302    1.855549
     13          1           0       -0.729202    2.359217    1.508759
     14          1           0       -1.851815    1.797005   -0.549334
     15          1           0        2.137205    1.468812   -0.562927
     16          1           0       -0.171312   -2.114656   -1.088708
     17          1           0        1.502663   -0.593007   -1.747787
     18          1           0       -1.541174   -0.300486   -1.760171
     19          1           0       -2.887870   -1.448871   -0.434895
     20          1           0       -1.052322   -1.712813    1.171031
     21          1           0        1.960432   -1.316150    0.918118
 ---------------------------------------------------------------------

 SCF Done:  E(RmPW1PW91) =  -610.650214235     A.U. after   12 cycles

      1  C    Isotropic =   130.6928   Anisotropy =    66.7144

      2  C    Isotropic =   120.6258   Anisotropy =    58.5616

      3  C    Isotropic =    92.5114   Anisotropy =    25.7161

      4  C    Isotropic =   125.7781   Anisotropy =    34.5518

      5  C    Isotropic =   124.5604   Anisotropy =    39.5634

      6  C    Isotropic =   126.5931   Anisotropy =    47.2226

      7  O    Isotropic =   234.5844   Anisotropy =    70.6559

      8  O    Isotropic =   272.0116   Anisotropy =    93.6911

      9  O    Isotropic =   308.3560   Anisotropy =    78.9333

     10  O    Isotropic =   317.3842   Anisotropy =    45.1132

     11  O    Isotropic =   308.8678   Anisotropy =    22.5415

     12  H    Isotropic =    27.2962   Anisotropy =     4.8076

     13  H    Isotropic =    27.7574   Anisotropy =    11.3893

     14  H    Isotropic =    27.1680   Anisotropy =     7.8113

     15  H    Isotropic =    26.2619   Anisotropy =     7.9520

     16  H    Isotropic =    27.4129   Anisotropy =     9.5692

     17  H    Isotropic =    28.0579   Anisotropy =     6.1576

     18  H    Isotropic =    27.4743   Anisotropy =     6.0081

     19  H    Isotropic =    29.7047   Anisotropy =    22.4129

     20  H    Isotropic =    27.9123   Anisotropy =    17.5790

     21  H    Isotropic =    28.4541   Anisotropy =    14.5433

 The electronic state is 1-A.
 Alpha  occ. eigenvalues --  -19.27902 -19.27849 -19.26647 -19.25972 -19.25948
 Alpha  occ. eigenvalues --  -10.35505 -10.32121 -10.31872 -10.31447 -10.31089
 Alpha  occ. eigenvalues --  -10.30398  -1.14232  -1.09241  -1.07362  -1.04910
 Alpha  occ. eigenvalues --   -1.04018  -0.82204  -0.80606  -0.70775  -0.68523
 Alpha  occ. eigenvalues --   -0.64257  -0.61101  -0.57360  -0.56051  -0.55068
 Alpha  occ. eigenvalues --   -0.51955  -0.50510  -0.48976  -0.47335  -0.46256
 Alpha  occ. eigenvalues --   -0.44369  -0.43536  -0.42909  -0.39780  -0.38506
 Alpha  occ. eigenvalues --   -0.37789  -0.36899  -0.36294  -0.33919  -0.31813
 Alpha  occ. eigenvalues --   -0.31034  -0.29625  -0.26873
 Alpha virt. eigenvalues --    0.00002   0.01738   0.02123   0.02469   0.04411
 Alpha virt. eigenvalues --    0.04741   0.04911   0.05146   0.05966   0.08350
 Alpha virt. eigenvalues --    0.08950   0.09423   0.10469   0.10851   0.11797

 Mulliken atomic charges:
              1
     1  C   -0.148924
     2  C    0.193329
     3  C   -0.058247
     4  C    0.241976
     5  C   -0.023549
     6  C   -0.271325
     7  O   -0.316230
     8  O   -0.369628
     9  O   -0.609354
    10  O   -0.625486
    11  O   -0.508010
    12  H    0.181630
    13  H    0.174748
    14  H    0.196835
    15  H    0.182878
    16  H    0.166445
    17  H    0.187591
    18  H    0.195144
    19  H    0.412963
    20  H    0.408115
    21  H    0.389097
 Sum of Mulliken atomic charges =   0.00000

 Dipole moment (field-independent basis, Debye):
    X=             -5.4627    Y=             -0.8807    Z=             -2.1870  Tot=              5.9498
 Quadrupole moment (field-independent basis, Debye-Ang):
   XX=            -65.1148   YY=            -65.5303   ZZ=            -63.0623
   XY=              6.5013   XZ=              1.0105   YZ=              3.7928

 Normal termination of Gaussian 09 at Fri Apr 12 12:05:14 2019.
