 Gaussian 09, Revision C.01,
 Gaussian 09:  EM64L-G09RevC.01 23-Sep-2011

 ------------------------------------------------
 # mpw1pw91/6-31+g** nmr scrf=(pcm,solvent=water)
 ------------------------------------------------

 99/9=1/99;
 -------
 comment
 -------
 Charge =  0 Multiplicity = 1

                         Standard orientation:
 ---------------------------------------------------------------------
 Center     Atomic      Atomic             Coordinates (Angstroms)
 Number     Number       Type             X           Y           Z
 ---------------------------------------------------------------------
      1          6           0       -0.555839    1.312473    1.169490
      2          6           0       -1.043316    1.125598   -0.275041
      3          6           0        1.169729    0.996127   -0.314727
      4          6           0       -0.070151   -1.234000   -0.422903
      5          6           0        1.263694   -0.494742   -0.689902
      6          6           0       -1.298984   -0.335617   -0.691078
      7          8           0        0.094856    1.584738   -1.029154
      8          8           0        0.875707    1.179117    1.064722
      9          8           0       -2.378553   -0.932364    0.024172
     10          8           0       -0.045785   -1.660775    0.939402
     11          8           0        2.336852   -1.131745   -0.018293
     12          1           0       -0.954835    0.561660    1.853597
     13          1           0       -0.790880    2.314927    1.543178
     14          1           0       -1.897086    1.759782   -0.525774
     15          1           0        2.096253    1.524141   -0.556370
     16          1           0       -0.130620   -2.118305   -1.073707
     17          1           0        1.487509   -0.540164   -1.760957
     18          1           0       -1.498344   -0.333838   -1.770635
     19          1           0       -3.212291   -0.530124   -0.266128
     20          1           0       -0.965477   -1.881148    1.168967
     21          1           0        2.010366   -1.287731    0.886001
 ---------------------------------------------------------------------

 SCF Done:  E(RmPW1PW91) =  -610.650041936     A.U. after   12 cycles

      1  C    Isotropic =   130.6398   Anisotropy =    67.1403

      2  C    Isotropic =   119.6185   Anisotropy =    58.0742

      3  C    Isotropic =    92.7493   Anisotropy =    26.0458

      4  C    Isotropic =   125.4922   Anisotropy =    35.9593

      5  C    Isotropic =   124.7018   Anisotropy =    39.9411

      6  C    Isotropic =   126.9421   Anisotropy =    44.9104

      7  O    Isotropic =   234.0169   Anisotropy =    68.9926

      8  O    Isotropic =   270.9658   Anisotropy =    94.2541

      9  O    Isotropic =   303.7658   Anisotropy =    56.1522

     10  O    Isotropic =   320.6440   Anisotropy =    36.7517

     11  O    Isotropic =   310.4753   Anisotropy =    22.2501

     12  H    Isotropic =    27.1207   Anisotropy =     4.7959

     13  H    Isotropic =    27.7696   Anisotropy =    11.3789

     14  H    Isotropic =    27.3266   Anisotropy =     7.6259

     15  H    Isotropic =    26.2569   Anisotropy =     7.9008

     16  H    Isotropic =    27.2060   Anisotropy =     9.4307

     17  H    Isotropic =    28.0416   Anisotropy =     6.2473

     18  H    Isotropic =    27.5913   Anisotropy =     6.1024

     19  H    Isotropic =    29.4163   Anisotropy =    20.9319

     20  H    Isotropic =    28.4648   Anisotropy =    17.4745

     21  H    Isotropic =    28.4397   Anisotropy =    14.6314

 The electronic state is 1-A.
 Alpha  occ. eigenvalues --  -19.27804 -19.27529 -19.26571 -19.26119 -19.26000
 Alpha  occ. eigenvalues --  -10.35477 -10.31953 -10.31704 -10.31624 -10.31128
 Alpha  occ. eigenvalues --  -10.30237  -1.14141  -1.09120  -1.07352  -1.05000
 Alpha  occ. eigenvalues --   -1.03921  -0.81978  -0.80784  -0.70788  -0.68223
 Alpha  occ. eigenvalues --   -0.64686  -0.61284  -0.57527  -0.56219  -0.54153
 Alpha  occ. eigenvalues --   -0.52167  -0.49848  -0.49512  -0.47275  -0.46103
 Alpha  occ. eigenvalues --   -0.44035  -0.43006  -0.42740  -0.40883  -0.38431
 Alpha  occ. eigenvalues --   -0.37771  -0.37656  -0.35300  -0.33481  -0.31930
 Alpha  occ. eigenvalues --   -0.31304  -0.29257  -0.26830
 Alpha virt. eigenvalues --    0.00057   0.01809   0.02132   0.02470   0.04478
 Alpha virt. eigenvalues --    0.04696   0.04900   0.05115   0.05991   0.08225
 Alpha virt. eigenvalues --    0.09184   0.09358   0.10217   0.10830   0.11998

 Mulliken atomic charges:
              1
     1  C   -0.148861
     2  C    0.199679
     3  C   -0.043589
     4  C    0.237675
     5  C   -0.030893
     6  C   -0.266330
     7  O   -0.320899
     8  O   -0.370212
     9  O   -0.612298
    10  O   -0.637927
    11  O   -0.510946
    12  H    0.185118
    13  H    0.172749
    14  H    0.194615
    15  H    0.183154
    16  H    0.168851
    17  H    0.188385
    18  H    0.190299
    19  H    0.413946
    20  H    0.416872
    21  H    0.390611
 Sum of Mulliken atomic charges =   0.00000

 Dipole moment (field-independent basis, Debye):
    X=             -6.1641    Y=              0.8058    Z=             -1.6291  Tot=              6.4265
 Quadrupole moment (field-independent basis, Debye-Ang):
   XX=            -60.3636   YY=            -69.0509   ZZ=            -63.5873
   XY=              0.1810   XZ=             -0.2181   YZ=              1.8655

 Normal termination of Gaussian 09 at Fri Apr 12 12:02:32 2019.
