 Gaussian 09, Revision C.01,
 Gaussian 09:  EM64L-G09RevC.01 23-Sep-2011

 ------------------------------------------------
 # mpw1pw91/6-31+g** nmr scrf=(pcm,solvent=water)
 ------------------------------------------------

 99/9=1/99;
 -------
 comment
 -------
 Charge =  0 Multiplicity = 1

                         Standard orientation:
 ---------------------------------------------------------------------
 Center     Atomic      Atomic             Coordinates (Angstroms)
 Number     Number       Type             X           Y           Z
 ---------------------------------------------------------------------
      1          6           0       -0.415048    1.277628    1.228072
      2          6           0       -1.028955    1.140440   -0.174915
      3          6           0        1.164151    0.970552   -0.415082
      4          6           0       -0.160661   -1.243282   -0.415493
      5          6           0        1.190768   -0.528845   -0.753265
      6          6           0       -1.360460   -0.297976   -0.614180
      7          8           0        0.052398    1.592452   -1.016989
      8          8           0        1.007453    1.143600    0.992322
      9          8           0       -2.485643   -0.834902    0.068064
     10          8           0       -0.145645   -1.709382    0.928299
     11          8           0        2.259885   -1.158014   -0.046433
     12          1           0       -0.755184    0.500354    1.912951
     13          1           0       -0.600947    2.267902    1.655239
     14          1           0       -1.882471    1.803142   -0.335732
     15          1           0        2.081046    1.472111   -0.736197
     16          1           0       -0.277763   -2.102900   -1.092517
     17          1           0        1.403990   -0.639323   -1.820747
     18          1           0       -1.551116   -0.243461   -1.695489
     19          1           0       -3.273266   -0.379585   -0.270743
     20          1           0        0.721432   -2.141912    1.026869
     21          1           0        2.287934   -0.717468    0.823436
 ---------------------------------------------------------------------

 SCF Done:  E(RmPW1PW91) =  -610.645236750     A.U. after   12 cycles

      1  C    Isotropic =   130.1637   Anisotropy =    67.4018

      2  C    Isotropic =   118.5279   Anisotropy =    57.6904

      3  C    Isotropic =    94.3855   Anisotropy =    27.9427

      4  C    Isotropic =   125.6054   Anisotropy =    34.8096

      5  C    Isotropic =   124.9361   Anisotropy =    39.0106

      6  C    Isotropic =   125.6342   Anisotropy =    46.1909

      7  O    Isotropic =   233.2624   Anisotropy =    68.3014

      8  O    Isotropic =   269.9819   Anisotropy =    88.3003

      9  O    Isotropic =   302.1879   Anisotropy =    57.1847

     10  O    Isotropic =   313.5311   Anisotropy =    41.6867

     11  O    Isotropic =   307.2560   Anisotropy =    45.1156

     12  H    Isotropic =    26.9149   Anisotropy =     4.8032

     13  H    Isotropic =    27.7386   Anisotropy =    11.3180

     14  H    Isotropic =    27.3134   Anisotropy =     7.4728

     15  H    Isotropic =    26.2474   Anisotropy =     8.2316

     16  H    Isotropic =    27.2685   Anisotropy =     9.2563

     17  H    Isotropic =    27.9644   Anisotropy =     6.6490

     18  H    Isotropic =    27.5240   Anisotropy =     5.4159

     19  H    Isotropic =    29.8078   Anisotropy =    20.2421

     20  H    Isotropic =    29.1883   Anisotropy =    17.6096

     21  H    Isotropic =    29.2788   Anisotropy =    15.0119

 The electronic state is 1-A.
 Alpha  occ. eigenvalues --  -19.28052 -19.27226 -19.27201 -19.26529 -19.25564
 Alpha  occ. eigenvalues --  -10.36049 -10.31683 -10.31619 -10.31493 -10.31378
 Alpha  occ. eigenvalues --  -10.30345  -1.14563  -1.08758  -1.07361  -1.05043
 Alpha  occ. eigenvalues --   -1.04229  -0.82080  -0.80737  -0.70920  -0.68093
 Alpha  occ. eigenvalues --   -0.64869  -0.60348  -0.57737  -0.56092  -0.54530
 Alpha  occ. eigenvalues --   -0.51958  -0.50483  -0.49250  -0.47436  -0.46011
 Alpha  occ. eigenvalues --   -0.44132  -0.43197  -0.42316  -0.40895  -0.38883
 Alpha  occ. eigenvalues --   -0.38121  -0.37499  -0.35427  -0.32518  -0.32197
 Alpha  occ. eigenvalues --   -0.30984  -0.29480  -0.27379
 Alpha virt. eigenvalues --    0.00121   0.01653   0.01933   0.02441   0.04382
 Alpha virt. eigenvalues --    0.04534   0.04907   0.05313   0.06034   0.08277
 Alpha virt. eigenvalues --    0.08999   0.09470   0.10132   0.10822   0.11834

 Mulliken atomic charges:
              1
     1  C   -0.156540
     2  C    0.260509
     3  C   -0.148774
     4  C    0.274936
     5  C   -0.019320
     6  C   -0.272761
     7  O   -0.317422
     8  O   -0.389057
     9  O   -0.557511
    10  O   -0.606399
    11  O   -0.557692
    12  H    0.196996
    13  H    0.175249
    14  H    0.192732
    15  H    0.192870
    16  H    0.164819
    17  H    0.191920
    18  H    0.187387
    19  H    0.396672
    20  H    0.398510
    21  H    0.392877
 Sum of Mulliken atomic charges =   0.00000

 Dipole moment (field-independent basis, Debye):
    X=             -1.7813    Y=              1.7529    Z=             -1.8794  Tot=              3.1269
 Quadrupole moment (field-independent basis, Debye-Ang):
   XX=            -59.9868   YY=            -69.3925   ZZ=            -63.6579
   XY=             -5.9976   XZ=              4.2770   YZ=              3.6114

 Normal termination of Gaussian 09 at Fri Apr 12 12:10:02 2019.
