 Gaussian 09, Revision C.01,
 Gaussian 09:  EM64L-G09RevC.01 23-Sep-2011

 -----------------------------------------------------------
 # B3LYP/6-31+G** test scrf=(pcm,solvent=water,smd,dovacuum)
 -----------------------------------------------------------

 99/5=1,9=1/99;
 -------
 comment
 -------
 Charge =  0 Multiplicity = 1

                         Standard orientation:
 ---------------------------------------------------------------------
 Center     Atomic      Atomic             Coordinates (Angstroms)
 Number     Number       Type             X           Y           Z
 ---------------------------------------------------------------------
      1          6           0       -1.817572    0.584813   -0.807537
      2          6           0       -1.166184    1.040457    0.496854
      3          6           0       -0.967636   -1.176829    0.427266
      4          6           0        1.202083    0.100242    0.776022
      5          6           0        0.577775   -1.266007    0.375822
      6          6           0        0.351764    1.342522    0.370945
      7          8           0       -1.351906   -0.145072    1.308580
      8          8           0       -1.448248   -0.810495   -0.873633
      9          8           0        0.659946    1.734033   -0.959643
     10          8           0        2.494496    0.215311    0.187020
     11          8           0        1.028919   -1.669145   -0.913970
     12          1           0       -1.440549    1.095187   -1.691860
     13          1           0       -2.907916    0.669692   -0.749664
     14          1           0       -1.706693    1.851924    0.984694
     15          1           0       -1.441182   -2.109628    0.740558
     16          1           0        1.319930    0.114838    1.863333
     17          1           0        0.928700   -2.028753    1.076972
     18          1           0        0.607939    2.158952    1.062047
     19          1           0        1.626960    1.607337   -1.020579
     20          1           0        2.479147   -0.431749   -0.549867
     21          1           0        0.386630   -1.276038   -1.538703
 ---------------------------------------------------------------------

 SCF Done:  E(RB3LYP) =  -610.800606311     A.U. after   12 cycles

 The electronic state is 1-A.
 Alpha  occ. eigenvalues --  -19.18706 -19.18075 -19.17542 -19.17011 -19.16365
 Alpha  occ. eigenvalues --  -10.29777 -10.25188 -10.24752 -10.24419 -10.24401
 Alpha  occ. eigenvalues --  -10.23805  -1.11446  -1.06004  -1.03958  -1.01888
 Alpha  occ. eigenvalues --   -1.01152  -0.79183  -0.77278  -0.68377  -0.65654
 Alpha  occ. eigenvalues --   -0.61959  -0.58123  -0.55851  -0.53484  -0.51611
 Alpha  occ. eigenvalues --   -0.50525  -0.49227  -0.46868  -0.45389  -0.45171
 Alpha  occ. eigenvalues --   -0.42310  -0.40948  -0.40851  -0.38656  -0.36971
 Alpha  occ. eigenvalues --   -0.36254  -0.35796  -0.34539  -0.31674  -0.31381
 Alpha  occ. eigenvalues --   -0.28489  -0.27936  -0.26600
 Alpha virt. eigenvalues --    0.00136   0.01422   0.02604   0.02718   0.04207
 Alpha virt. eigenvalues --    0.04891   0.05403   0.05745   0.05841   0.08308
 Alpha virt. eigenvalues --    0.08802   0.09834   0.10097   0.10902   0.11649

 Mulliken atomic charges:
              1
     1  C   -0.128392
     2  C    0.229679
     3  C    0.033978
     4  C   -0.015444
     5  C    0.122702
     6  C    0.058424
     7  O   -0.398276
     8  O   -0.492296
     9  O   -0.623497
    10  O   -0.651892
    11  O   -0.608419
    12  H    0.181630
    13  H    0.165232
    14  H    0.183695
    15  H    0.177278
    16  H    0.177360
    17  H    0.174835
    18  H    0.150956
    19  H    0.416659
    20  H    0.422783
    21  H    0.423005
 Sum of Mulliken atomic charges =   0.00000

 Dipole moment (field-independent basis, Debye):
    X=             -1.5958    Y=              0.8323    Z=              1.0792  Tot=              2.0985
 Quadrupole moment (field-independent basis, Debye-Ang):
   XX=            -69.6177   YY=            -65.8231   ZZ=            -65.7429
   XY=             -2.4807   XZ=             -0.1938   YZ=             -1.0579

 Normal termination of Gaussian 09 at Mon Apr 15 19:02:37 2019.
