 Gaussian 09, Revision C.01,
 Gaussian 09:  EM64L-G09RevC.01 23-Sep-2011

 -----------------------------------------------------------
 # B3LYP/6-31+G** test scrf=(pcm,solvent=water,smd,dovacuum)
 -----------------------------------------------------------

 99/5=1,9=1/99;
 -------
 comment
 -------
 Charge =  0 Multiplicity = 1

                         Standard orientation:
 ---------------------------------------------------------------------
 Center     Atomic      Atomic             Coordinates (Angstroms)
 Number     Number       Type             X           Y           Z
 ---------------------------------------------------------------------
      1          6           0       -1.044587    1.201023    1.070538
      2          6           0       -1.297031    0.860818   -0.393221
      3          6           0        0.896459    1.210113   -0.207591
      4          6           0        0.254617   -1.194656   -0.391639
      5          6           0        1.378732   -0.176561   -0.669315
      6          6           0       -1.150759   -0.638495   -0.745586
      7          8           0       -0.206992    1.578261   -1.010372
      8          8           0        0.402440    1.147420    1.153755
      9          8           0       -2.154868   -1.423123   -0.123508
     10          8           0        0.304118   -1.593931    0.992957
     11          8           0        2.595848   -0.572335   -0.061113
     12          1           0       -1.473850    0.491122    1.781055
     13          1           0       -1.390592    2.211112    1.311177
     14          1           0       -2.235684    1.261825   -0.778690
     15          1           0        1.673607    1.974839   -0.278505
     16          1           0        0.424850   -2.117814   -0.952251
     17          1           0        1.557169   -0.102963   -1.747746
     18          1           0       -1.285949   -0.720051   -1.830096
     19          1           0       -1.739509   -1.782122    0.683630
     20          1           0        0.368567   -0.763679    1.509090
     21          1           0        2.352440   -1.116049    0.709469
 ---------------------------------------------------------------------

 SCF Done:  E(RB3LYP) =  -610.807624809     A.U. after   12 cycles

 The electronic state is 1-A.
 Alpha  occ. eigenvalues --  -19.18730 -19.18302 -19.17618 -19.17176 -19.16973
 Alpha  occ. eigenvalues --  -10.29546 -10.25279 -10.25027 -10.24936 -10.24919
 Alpha  occ. eigenvalues --  -10.24175  -1.11398  -1.06000  -1.04122  -1.02250
 Alpha  occ. eigenvalues --   -1.01271  -0.79343  -0.78193  -0.68200  -0.66297
 Alpha  occ. eigenvalues --   -0.61998  -0.59856  -0.56604  -0.52783  -0.51843
 Alpha  occ. eigenvalues --   -0.50045  -0.48946  -0.47636  -0.45092  -0.44860
 Alpha  occ. eigenvalues --   -0.43128  -0.41839  -0.41291  -0.39342  -0.37356
 Alpha  occ. eigenvalues --   -0.36471  -0.35068  -0.34182  -0.33142  -0.31268
 Alpha  occ. eigenvalues --   -0.29937  -0.28065  -0.26203
 Alpha virt. eigenvalues --    0.00305   0.02066   0.02486   0.02843   0.04567
 Alpha virt. eigenvalues --    0.04880   0.05046   0.05093   0.05839   0.08189
 Alpha virt. eigenvalues --    0.09052   0.09576   0.10728   0.10956   0.11900

 Mulliken atomic charges:
              1
     1  C   -0.097868
     2  C    0.259982
     3  C    0.130355
     4  C    0.146783
     5  C   -0.029587
     6  C   -0.163629
     7  O   -0.402078
     8  O   -0.508937
     9  O   -0.585544
    10  O   -0.673818
    11  O   -0.579029
    12  H    0.186398
    13  H    0.170799
    14  H    0.183353
    15  H    0.172883
    16  H    0.173181
    17  H    0.184166
    18  H    0.176241
    19  H    0.407357
    20  H    0.447151
    21  H    0.401839
 Sum of Mulliken atomic charges =   0.00000

 Dipole moment (field-independent basis, Debye):
    X=             -1.6175    Y=              0.8127    Z=              0.4776  Tot=              1.8721
 Quadrupole moment (field-independent basis, Debye-Ang):
   XX=            -75.5525   YY=            -69.2982   ZZ=            -62.1460
   XY=             -4.5489   XZ=             -2.7963   YZ=              1.3346

 Normal termination of Gaussian 09 at Mon Apr 15 18:40:09 2019.
