 Gaussian 09, Revision C.01,
 Gaussian 09:  EM64L-G09RevC.01 23-Sep-2011

 -----------------------------------------------------------
 # B3LYP/6-31+G** test scrf=(pcm,solvent=water,smd,dovacuum)
 -----------------------------------------------------------

 99/5=1,9=1/99;
 -------
 comment
 -------
 Charge =  0 Multiplicity = 1

                         Standard orientation:
 ---------------------------------------------------------------------
 Center     Atomic      Atomic             Coordinates (Angstroms)
 Number     Number       Type             X           Y           Z
 ---------------------------------------------------------------------
      1          6           0       -1.499864    0.834544   -0.933017
      2          6           0       -0.856175    1.243381    0.413504
      3          6           0       -1.285285   -0.931787    0.476558
      4          6           0        1.170789   -0.245521    0.758214
      5          6           0        0.200845   -1.369859    0.297275
      6          6           0        0.692131    1.195634    0.418939
      7          8           0       -1.330690    0.221247    1.312407
      8          8           0       -1.889626   -0.534573   -0.732286
      9          8           0        1.261403    1.570576   -0.841247
     10          8           0        2.456764   -0.480472    0.193344
     11          8           0        0.447910   -1.717684   -1.053402
     12          1           0       -0.798455    0.920645   -1.765254
     13          1           0       -2.399618    1.418920   -1.146484
     14          1           0       -1.224461    2.204083    0.776690
     15          1           0       -1.896138   -1.713844    0.931317
     16          1           0        1.259571   -0.313274    1.846226
     17          1           0        0.378457   -2.240126    0.948892
     18          1           0        1.070156    1.868709    1.194720
     19          1           0        1.532825    2.499931   -0.796761
     20          1           0        2.554773    0.215839   -0.489053
     21          1           0        1.422161   -1.691987   -1.119657
 ---------------------------------------------------------------------

 SCF Done:  E(RB3LYP) =  -610.797128343     A.U. after   12 cycles

 The electronic state is 1-A.
 Alpha  occ. eigenvalues --  -19.18242 -19.17761 -19.17515 -19.16928 -19.16450
 Alpha  occ. eigenvalues --  -10.29401 -10.25029 -10.24940 -10.24475 -10.24196
 Alpha  occ. eigenvalues --  -10.23558  -1.11139  -1.06016  -1.03844  -1.01809
 Alpha  occ. eigenvalues --   -1.01173  -0.78867  -0.77271  -0.68278  -0.65565
 Alpha  occ. eigenvalues --   -0.61742  -0.57936  -0.55384  -0.53201  -0.51939
 Alpha  occ. eigenvalues --   -0.50451  -0.49659  -0.46904  -0.44712  -0.44510
 Alpha  occ. eigenvalues --   -0.43032  -0.42341  -0.39416  -0.38697  -0.36521
 Alpha  occ. eigenvalues --   -0.36097  -0.35057  -0.33307  -0.32724  -0.31055
 Alpha  occ. eigenvalues --   -0.28434  -0.27393  -0.26654
 Alpha virt. eigenvalues --   -0.00189   0.01301   0.02213   0.02714   0.04302
 Alpha virt. eigenvalues --    0.04857   0.05343   0.05730   0.06254   0.07970
 Alpha virt. eigenvalues --    0.09010   0.09705   0.10201   0.10913   0.11591

 Mulliken atomic charges:
              1
     1  C   -0.110301
     2  C    0.174974
     3  C   -0.017287
     4  C   -0.064180
     5  C    0.279474
     6  C    0.013637
     7  O   -0.393315
     8  O   -0.420694
     9  O   -0.660341
    10  O   -0.657674
    11  O   -0.618140
    12  H    0.173482
    13  H    0.165699
    14  H    0.181747
    15  H    0.173378
    16  H    0.177619
    17  H    0.153606
    18  H    0.176441
    19  H    0.434070
    20  H    0.423279
    21  H    0.414528
 Sum of Mulliken atomic charges =   0.00000

 Dipole moment (field-independent basis, Debye):
    X=              2.0764    Y=              5.8181    Z=              1.9230  Tot=              6.4699
 Quadrupole moment (field-independent basis, Debye-Ang):
   XX=            -70.6789   YY=            -53.3380   ZZ=            -69.0884
   XY=              2.9270   XZ=             -2.3942   YZ=             -5.8175

 Normal termination of Gaussian 09 at Mon Apr 15 18:53:31 2019.
