 Gaussian 09, Revision C.01,
 Gaussian 09:  EM64L-G09RevC.01 23-Sep-2011

 ------------------------------------------------
 # mpw1pw91/6-31+g** nmr scrf=(pcm,solvent=water)
 ------------------------------------------------

 99/9=1/99;
 -------
 comment
 -------
 Charge =  0 Multiplicity = 1

                         Standard orientation:
 ---------------------------------------------------------------------
 Center     Atomic      Atomic             Coordinates (Angstroms)
 Number     Number       Type             X           Y           Z
 ---------------------------------------------------------------------
      1          6           0       -0.996353    1.209225    1.091457
      2          6           0       -1.294404    0.853507   -0.359488
      3          6           0        0.900516    1.198015   -0.253891
      4          6           0        0.241957   -1.215532   -0.330110
      5          6           0        1.355468   -0.204176   -0.698460
      6          6           0       -1.156423   -0.651035   -0.687234
      7          8           0       -0.227686    1.559867   -1.025106
      8          8           0        0.453509    1.179376    1.124251
      9          8           0       -2.135532   -1.434244   -0.019459
     10          8           0        0.394281   -1.576606    1.048384
     11          8           0        2.590888   -0.588550   -0.122790
     12          1           0       -1.392830    0.489753    1.811343
     13          1           0       -1.348993    2.214946    1.341045
     14          1           0       -2.244585    1.251859   -0.721693
     15          1           0        1.681808    1.952952   -0.370906
     16          1           0        0.384905   -2.151793   -0.877238
     17          1           0        1.490957   -0.161458   -1.784994
     18          1           0       -1.258739   -0.739430   -1.778326
     19          1           0       -2.989744   -1.265341   -0.448988
     20          1           0        0.415031   -0.737516    1.548085
     21          1           0        2.353941   -1.112740    0.665786
 ---------------------------------------------------------------------

 SCF Done:  E(RmPW1PW91) =  -610.647483172     A.U. after   12 cycles

      1  C    Isotropic =   130.1460   Anisotropy =    64.9601

      2  C    Isotropic =   117.8999   Anisotropy =    56.9266

      3  C    Isotropic =    90.6057   Anisotropy =    28.3979

      4  C    Isotropic =   121.8297   Anisotropy =    35.7209

      5  C    Isotropic =   124.9593   Anisotropy =    42.4505

      6  C    Isotropic =   127.1274   Anisotropy =    45.8862

      7  O    Isotropic =   232.6769   Anisotropy =    73.5985

      8  O    Isotropic =   266.4575   Anisotropy =    98.6471

      9  O    Isotropic =   301.9101   Anisotropy =    60.0243

     10  O    Isotropic =   314.9195   Anisotropy =    95.1394

     11  O    Isotropic =   308.0488   Anisotropy =    31.1996

     12  H    Isotropic =    27.1697   Anisotropy =     6.2293

     13  H    Isotropic =    27.7602   Anisotropy =    11.6907

     14  H    Isotropic =    27.2275   Anisotropy =     7.4603

     15  H    Isotropic =    26.1521   Anisotropy =     7.4825

     16  H    Isotropic =    27.4353   Anisotropy =     8.5733

     17  H    Isotropic =    27.9930   Anisotropy =     6.0987

     18  H    Isotropic =    27.5635   Anisotropy =     5.7799

     19  H    Isotropic =    29.7304   Anisotropy =    20.5027

     20  H    Isotropic =    28.5510   Anisotropy =    19.3941

     21  H    Isotropic =    28.0569   Anisotropy =    15.5933

 The electronic state is 1-A.
 Alpha  occ. eigenvalues --  -19.28278 -19.27970 -19.26790 -19.26530 -19.26149
 Alpha  occ. eigenvalues --  -10.36131 -10.32035 -10.31990 -10.31927 -10.31382
 Alpha  occ. eigenvalues --  -10.31080  -1.14755  -1.08823  -1.07325  -1.05286
 Alpha  occ. eigenvalues --   -1.04414  -0.82426  -0.81228  -0.70910  -0.68659
 Alpha  occ. eigenvalues --   -0.64866  -0.61991  -0.58434  -0.55883  -0.53223
 Alpha  occ. eigenvalues --   -0.52311  -0.50405  -0.49087  -0.48953  -0.46553
 Alpha  occ. eigenvalues --   -0.45036  -0.43966  -0.42181  -0.40160  -0.39633
 Alpha  occ. eigenvalues --   -0.38366  -0.36622  -0.35747  -0.34274  -0.32562
 Alpha  occ. eigenvalues --   -0.31171  -0.29706  -0.27568
 Alpha virt. eigenvalues --    0.00110   0.01973   0.02176   0.02437   0.04347
 Alpha virt. eigenvalues --    0.04464   0.04805   0.05215   0.05581   0.08282
 Alpha virt. eigenvalues --    0.08901   0.09367   0.10261   0.10650   0.11665

 Mulliken atomic charges:
              1
     1  C   -0.108625
     2  C    0.168194
     3  C    0.014260
     4  C    0.133650
     5  C   -0.072971
     6  C   -0.257165
     7  O   -0.326040
     8  O   -0.444977
     9  O   -0.541496
    10  O   -0.580076
    11  O   -0.513970
    12  H    0.192915
    13  H    0.184865
    14  H    0.199235
    15  H    0.188263
    16  H    0.183450
    17  H    0.192298
    18  H    0.189902
    19  H    0.398401
    20  H    0.417221
    21  H    0.382666
 Sum of Mulliken atomic charges =   0.00000

 Dipole moment (field-independent basis, Debye):
    X=             -4.5265    Y=              1.6657    Z=             -1.8652  Tot=              5.1713
 Quadrupole moment (field-independent basis, Debye-Ang):
   XX=            -61.8249   YY=            -71.3320   ZZ=            -63.1062
   XY=             -1.9837   XZ=              2.8831   YZ=              5.4590

 Normal termination of Gaussian 09 at Fri Apr 12 12:10:37 2019.
