 Gaussian 09, Revision C.01,
 Gaussian 09:  EM64L-G09RevC.01 23-Sep-2011

 -----------------------------------------------------------
 # B3LYP/6-31+G** test scrf=(pcm,solvent=water,smd,dovacuum)
 -----------------------------------------------------------

 99/5=1,9=1/99;
 -------
 comment
 -------
 Charge =  0 Multiplicity = 1

                         Standard orientation:
 ---------------------------------------------------------------------
 Center     Atomic      Atomic             Coordinates (Angstroms)
 Number     Number       Type             X           Y           Z
 ---------------------------------------------------------------------
      1          6           0       -1.958024   -0.581005    0.670914
      2          6           0       -1.174794   -1.004498   -0.565669
      3          6           0       -0.924802    1.190949   -0.389729
      4          6           0        1.193038   -0.136431   -0.805606
      5          6           0        0.627124    1.219530   -0.304260
      6          6           0        0.334924   -1.294818   -0.262521
      7          8           0       -1.283114    0.209786   -1.347938
      8          8           0       -1.518966    0.780900    0.843320
      9          8           0        0.637164   -1.470019    1.128830
     10          8           0        2.545192   -0.281300   -0.378362
     11          8           0        1.032206    1.448572    1.043514
     12          1           0       -1.719711   -1.150585    1.569634
     13          1           0       -3.037012   -0.612820    0.481090
     14          1           0       -1.640959   -1.804445   -1.140820
     15          1           0       -1.346666    2.151584   -0.694026
     16          1           0        1.182647   -0.148380   -1.897913
     17          1           0        0.999522    2.025005   -0.952336
     18          1           0        0.634346   -2.234797   -0.733076
     19          1           0        0.537114   -0.592132    1.550920
     20          1           0        2.504091   -0.846218    0.416921
     21          1           0        2.001979    1.346916    1.025922
 ---------------------------------------------------------------------

 SCF Done:  E(RB3LYP) =  -610.796116969     A.U. after   12 cycles

 The electronic state is 1-A.
 Alpha  occ. eigenvalues --  -19.18449 -19.17619 -19.17351 -19.17235 -19.17086
 Alpha  occ. eigenvalues --  -10.29665 -10.25245 -10.25060 -10.24544 -10.24521
 Alpha  occ. eigenvalues --  -10.23868  -1.11330  -1.06145  -1.03562  -1.02195
 Alpha  occ. eigenvalues --   -1.01140  -0.79107  -0.77764  -0.68361  -0.65781
 Alpha  occ. eigenvalues --   -0.61957  -0.58010  -0.56071  -0.52997  -0.52631
 Alpha  occ. eigenvalues --   -0.51128  -0.48370  -0.46871  -0.44933  -0.43795
 Alpha  occ. eigenvalues --   -0.43113  -0.42773  -0.40327  -0.39122  -0.37309
 Alpha  occ. eigenvalues --   -0.36191  -0.35092  -0.34356  -0.32560  -0.31184
 Alpha  occ. eigenvalues --   -0.28760  -0.27337  -0.26803
 Alpha virt. eigenvalues --    0.00033   0.01509   0.02608   0.02790   0.04456
 Alpha virt. eigenvalues --    0.04731   0.05384   0.05614   0.05741   0.08118
 Alpha virt. eigenvalues --    0.08190   0.09424   0.10041   0.10889   0.11808

 Mulliken atomic charges:
              1
     1  C   -0.157774
     2  C    0.292636
     3  C   -0.004611
     4  C   -0.041312
     5  C    0.261449
     6  C   -0.057401
     7  O   -0.423956
     8  O   -0.474414
     9  O   -0.620298
    10  O   -0.638129
    11  O   -0.627492
    12  H    0.181433
    13  H    0.165887
    14  H    0.183643
    15  H    0.173700
    16  H    0.183660
    17  H    0.163586
    18  H    0.169722
    19  H    0.427214
    20  H    0.416912
    21  H    0.425545
 Sum of Mulliken atomic charges =   0.00000

 Dipole moment (field-independent basis, Debye):
    X=             -0.5011    Y=             -1.5812    Z=             -1.6102  Tot=              2.3117
 Quadrupole moment (field-independent basis, Debye-Ang):
   XX=            -66.7988   YY=            -63.2152   ZZ=            -69.0425
   XY=              5.8126   XZ=              2.4854   YZ=             -1.4628

 Normal termination of Gaussian 09 at Mon Apr 15 18:41:51 2019.
