 Gaussian 09, Revision C.01,
 Gaussian 09:  EM64L-G09RevC.01 23-Sep-2011

 -----------------------------------------------------------
 # B3LYP/6-31+G** test scrf=(pcm,solvent=water,smd,dovacuum)
 -----------------------------------------------------------

 99/5=1,9=1/99;
 -------
 comment
 -------
 Charge =  0 Multiplicity = 1

                         Standard orientation:
 ---------------------------------------------------------------------
 Center     Atomic      Atomic             Coordinates (Angstroms)
 Number     Number       Type             X           Y           Z
 ---------------------------------------------------------------------
      1          6           0       -0.555839    1.312473    1.169490
      2          6           0       -1.043316    1.125598   -0.275041
      3          6           0        1.169729    0.996127   -0.314727
      4          6           0       -0.070151   -1.234000   -0.422903
      5          6           0        1.263694   -0.494742   -0.689902
      6          6           0       -1.298984   -0.335617   -0.691078
      7          8           0        0.094856    1.584738   -1.029154
      8          8           0        0.875707    1.179117    1.064722
      9          8           0       -2.378553   -0.932364    0.024172
     10          8           0       -0.045785   -1.660775    0.939402
     11          8           0        2.336852   -1.131745   -0.018293
     12          1           0       -0.954835    0.561660    1.853597
     13          1           0       -0.790880    2.314927    1.543178
     14          1           0       -1.897086    1.759782   -0.525774
     15          1           0        2.096253    1.524141   -0.556370
     16          1           0       -0.130620   -2.118305   -1.073707
     17          1           0        1.487509   -0.540164   -1.760957
     18          1           0       -1.498344   -0.333838   -1.770635
     19          1           0       -3.212291   -0.530124   -0.266128
     20          1           0       -0.965477   -1.881148    1.168967
     21          1           0        2.010366   -1.287731    0.886001
 ---------------------------------------------------------------------

 SCF Done:  E(RB3LYP) =  -610.806798716     A.U. after   12 cycles

 The electronic state is 1-A.
 Alpha  occ. eigenvalues --  -19.18418 -19.17625 -19.17370 -19.17014 -19.16669
 Alpha  occ. eigenvalues --  -10.29073 -10.24984 -10.24853 -10.24821 -10.24562
 Alpha  occ. eigenvalues --  -10.23642  -1.11043  -1.05789  -1.04210  -1.01925
 Alpha  occ. eigenvalues --   -1.01138  -0.78998  -0.77933  -0.68125  -0.65663
 Alpha  occ. eigenvalues --   -0.62268  -0.59103  -0.55339  -0.53880  -0.52008
 Alpha  occ. eigenvalues --   -0.50253  -0.47815  -0.47464  -0.45513  -0.44206
 Alpha  occ. eigenvalues --   -0.42362  -0.41285  -0.40988  -0.38882  -0.36885
 Alpha  occ. eigenvalues --   -0.36457  -0.36111  -0.33736  -0.31972  -0.30461
 Alpha  occ. eigenvalues --   -0.29787  -0.27819  -0.25592
 Alpha virt. eigenvalues --    0.00129   0.01872   0.02220   0.02637   0.04665
 Alpha virt. eigenvalues --    0.04824   0.05046   0.05230   0.06168   0.08324
 Alpha virt. eigenvalues --    0.09270   0.09541   0.10491   0.10900   0.12140

 Mulliken atomic charges:
              1
     1  C   -0.101668
     2  C    0.235172
     3  C    0.069981
     4  C    0.246094
     5  C    0.008140
     6  C   -0.158014
     7  O   -0.393987
     8  O   -0.444313
     9  O   -0.667057
    10  O   -0.690607
    11  O   -0.575165
    12  H    0.175566
    13  H    0.160880
    14  H    0.180476
    15  H    0.168880
    16  H    0.153277
    17  H    0.179937
    18  H    0.176120
    19  H    0.436039
    20  H    0.433871
    21  H    0.406378
 Sum of Mulliken atomic charges =   0.00000

 Dipole moment (field-independent basis, Debye):
    X=             -6.7434    Y=              0.9060    Z=             -1.9178  Tot=              7.0691
 Quadrupole moment (field-independent basis, Debye-Ang):
   XX=            -60.8119   YY=            -70.0561   ZZ=            -64.1293
   XY=              0.1045   XZ=             -0.2474   YZ=              2.1661

 Normal termination of Gaussian 09 at Mon Apr 15 18:41:07 2019.
