 Gaussian 09, Revision C.01,
 Gaussian 09:  EM64L-G09RevC.01 23-Sep-2011

 -----------------------------------------------------------
 # B3LYP/6-31+G** test scrf=(pcm,solvent=water,smd,dovacuum)
 -----------------------------------------------------------

 99/5=1,9=1/99;
 -------
 comment
 -------
 Charge =  0 Multiplicity = 1

                         Standard orientation:
 ---------------------------------------------------------------------
 Center     Atomic      Atomic             Coordinates (Angstroms)
 Number     Number       Type             X           Y           Z
 ---------------------------------------------------------------------
      1          6           0        1.172315   -1.337594   -0.933941
      2          6           0        0.431805   -1.489454    0.402823
      3          6           0        1.445879    0.485639    0.453202
      4          6           0       -0.987178    0.504757   -0.160309
      5          6           0        0.171459    1.343693    0.408328
      6          6           0       -0.995738   -0.924131    0.393937
      7          8           0        1.222840   -0.650263    1.264188
      8          8           0        1.736801   -0.008695   -0.858333
      9          8           0       -1.823487   -1.776683   -0.387294
     10          8           0       -2.265311    1.073244    0.112452
     11          8           0        0.360989    2.534008   -0.350483
     12          1           0        1.985179   -2.064509   -1.029671
     13          1           0        0.509719   -1.415341   -1.800134
     14          1           0        0.448474   -2.507144    0.796174
     15          1           0        2.308031    1.041326    0.830479
     16          1           0       -0.841874    0.435396   -1.248754
     17          1           0       -0.072421    1.666492    1.425439
     18          1           0       -1.345785   -0.892243    1.436630
     19          1           0       -2.676937   -1.319701   -0.477239
     20          1           0       -2.295575    1.932220   -0.340446
     21          1           0        0.695287    2.253159   -1.220957
 ---------------------------------------------------------------------

 SCF Done:  E(RB3LYP) =  -610.811513180     A.U. after   12 cycles

 The electronic state is 1-A.
 Alpha  occ. eigenvalues --  -19.18712 -19.17721 -19.17332 -19.17152 -19.17112
 Alpha  occ. eigenvalues --  -10.29513 -10.25273 -10.24776 -10.24525 -10.24478
 Alpha  occ. eigenvalues --  -10.24021  -1.11314  -1.05192  -1.04093  -1.02584
 Alpha  occ. eigenvalues --   -1.01333  -0.79624  -0.78156  -0.68115  -0.65839
 Alpha  occ. eigenvalues --   -0.62230  -0.59235  -0.55663  -0.53920  -0.52312
 Alpha  occ. eigenvalues --   -0.49310  -0.48750  -0.47473  -0.45527  -0.44554
 Alpha  occ. eigenvalues --   -0.42475  -0.41781  -0.41313  -0.38526  -0.37034
 Alpha  occ. eigenvalues --   -0.36760  -0.35486  -0.34741  -0.32178  -0.30108
 Alpha  occ. eigenvalues --   -0.29231  -0.28415  -0.26276
 Alpha virt. eigenvalues --    0.00724   0.01352   0.02025   0.02753   0.04293
 Alpha virt. eigenvalues --    0.04783   0.04823   0.05539   0.05993   0.08488
 Alpha virt. eigenvalues --    0.09002   0.09680   0.10305   0.10787   0.11494

 Mulliken atomic charges:
              1
     1  C   -0.089946
     2  C    0.202271
     3  C    0.010456
     4  C   -0.008541
     5  C    0.106720
     6  C    0.001588
     7  O   -0.388142
     8  O   -0.455947
     9  O   -0.607894
    10  O   -0.638269
    11  O   -0.587703
    12  H    0.166945
    13  H    0.179893
    14  H    0.182655
    15  H    0.174498
    16  H    0.181307
    17  H    0.180250
    18  H    0.167952
    19  H    0.408387
    20  H    0.413581
    21  H    0.399939
 Sum of Mulliken atomic charges =   0.00000

 Dipole moment (field-independent basis, Debye):
    X=             -0.5516    Y=             -0.2563    Z=             -1.7087  Tot=              1.8137
 Quadrupole moment (field-independent basis, Debye-Ang):
   XX=            -67.6956   YY=            -69.0639   ZZ=            -64.3435
   XY=             -3.7935   XZ=              1.8212   YZ=             -1.9777

 Normal termination of Gaussian 09 at Mon Apr 15 18:47:35 2019.
