 Gaussian 09, Revision C.01,
 Gaussian 09:  EM64L-G09RevC.01 23-Sep-2011

 -----------------------------------------------------------
 # B3LYP/6-31+G** test scrf=(pcm,solvent=water,smd,dovacuum)
 -----------------------------------------------------------

 99/5=1,9=1/99;
 -------
 comment
 -------
 Charge =  0 Multiplicity = 1

                         Standard orientation:
 ---------------------------------------------------------------------
 Center     Atomic      Atomic             Coordinates (Angstroms)
 Number     Number       Type             X           Y           Z
 ---------------------------------------------------------------------
      1          6           0       -1.793106    0.276380   -0.921942
      2          6           0       -1.318355    0.822037    0.430425
      3          6           0       -0.774897   -1.331647    0.381225
      4          6           0        1.060523    0.263645   -0.177895
      5          6           0        0.749441   -1.130803    0.387691
      6          6           0        0.131416    1.328586    0.418769
      7          8           0       -1.353437   -0.366503    1.242060
      8          8           0       -1.327423   -1.089782   -0.912391
      9          8           0        0.197567    2.539521   -0.322192
     10          8           0        2.404290    0.683438    0.086425
     11          8           0        1.348588   -2.168275   -0.381381
     12          1           0       -1.363081    0.813341   -1.772234
     13          1           0       -2.885554    0.284619   -1.000064
     14          1           0       -1.992166    1.561730    0.865928
     15          1           0       -1.056656   -2.333862    0.714068
     16          1           0        0.893189    0.225305   -1.260746
     17          1           0        1.082764   -1.182641    1.433659
     18          1           0        0.428481    1.499667    1.464839
     19          1           0        1.144928    2.739100   -0.417336
     20          1           0        2.962709    0.400775   -0.653773
     21          1           0        2.298567   -2.164414   -0.184146
 ---------------------------------------------------------------------

 SCF Done:  E(RB3LYP) =  -610.810486240     A.U. after   12 cycles

 The electronic state is 1-A.
 Alpha  occ. eigenvalues --  -19.18567 -19.17582 -19.17172 -19.17140 -19.17100
 Alpha  occ. eigenvalues --  -10.29550 -10.25188 -10.24660 -10.24473 -10.24409
 Alpha  occ. eigenvalues --  -10.23939  -1.11236  -1.05076  -1.03928  -1.02418
 Alpha  occ. eigenvalues --   -1.01283  -0.79542  -0.78502  -0.67861  -0.65905
 Alpha  occ. eigenvalues --   -0.61842  -0.58515  -0.55433  -0.54233  -0.52321
 Alpha  occ. eigenvalues --   -0.50687  -0.48294  -0.46674  -0.45844  -0.44477
 Alpha  occ. eigenvalues --   -0.42837  -0.42204  -0.40594  -0.38354  -0.37711
 Alpha  occ. eigenvalues --   -0.36028  -0.34939  -0.34275  -0.32166  -0.30283
 Alpha  occ. eigenvalues --   -0.29289  -0.27813  -0.26555
 Alpha virt. eigenvalues --    0.00342   0.01362   0.02037   0.02738   0.04086
 Alpha virt. eigenvalues --    0.04633   0.05134   0.05637   0.06170   0.08232
 Alpha virt. eigenvalues --    0.08967   0.09898   0.10203   0.10655   0.11504

 Mulliken atomic charges:
              1
     1  C   -0.090217
     2  C    0.218395
     3  C    0.006095
     4  C   -0.072026
     5  C    0.200556
     6  C   -0.009774
     7  O   -0.395395
     8  O   -0.443163
     9  O   -0.605844
    10  O   -0.654719
    11  O   -0.623821
    12  H    0.178692
    13  H    0.165726
    14  H    0.181659
    15  H    0.171278
    16  H    0.187237
    17  H    0.174616
    18  H    0.166300
    19  H    0.406976
    20  H    0.418845
    21  H    0.418583
 Sum of Mulliken atomic charges =   0.00000

 Dipole moment (field-independent basis, Debye):
    X=              3.2310    Y=              1.1953    Z=             -0.1138  Tot=              3.4469
 Quadrupole moment (field-independent basis, Debye-Ang):
   XX=            -54.5404   YY=            -72.4423   ZZ=            -67.5234
   XY=             -4.2481   XZ=             -3.2800   YZ=             -5.1292

 Normal termination of Gaussian 09 at Mon Apr 15 18:53:02 2019.
