 Gaussian 09, Revision C.01,
 Gaussian 09:  EM64L-G09RevC.01 23-Sep-2011

 ------------------------------------------------
 # mpw1pw91/6-31+g** nmr scrf=(pcm,solvent=water)
 ------------------------------------------------

 99/9=1/99;
 -------
 comment
 -------
 Charge =  0 Multiplicity = 1

                         Standard orientation:
 ---------------------------------------------------------------------
 Center     Atomic      Atomic             Coordinates (Angstroms)
 Number     Number       Type             X           Y           Z
 ---------------------------------------------------------------------
      1          6           0        0.662774   -1.657638   -0.920276
      2          6           0       -0.104448   -1.541798    0.403524
      3          6           0        1.512945   -0.027129    0.472821
      4          6           0       -0.758470    0.836768   -0.167439
      5          6           0        0.620611    1.222901    0.392150
      6          6           0       -1.249507   -0.513703    0.374026
      7          8           0        0.911588   -1.015967    1.280002
      8          8           0        1.642551   -0.599006   -0.834671
      9          8           0       -2.330880   -0.907117   -0.469823
     10          8           0       -1.687238    1.873469    0.127049
     11          8           0        1.251740    2.232856   -0.384825
     12          1           0        0.024531   -1.510499   -1.796076
     13          1           0        1.182358   -2.617501   -1.005370
     14          1           0       -0.437568   -2.503451    0.799467
     15          1           0        2.506026    0.209424    0.862663
     16          1           0       -0.655588    0.731383   -1.258832
     17          1           0        0.500929    1.638854    1.397815
     18          1           0       -1.594208   -0.368785    1.406491
     19          1           0       -2.859859   -1.570297    0.001861
     20          1           0       -2.539025    1.579754   -0.238424
     21          1           0        1.466876    1.820830   -1.240301
 ---------------------------------------------------------------------

 SCF Done:  E(RmPW1PW91) =  -610.652147328     A.U. after   12 cycles

      1  C    Isotropic =   130.5316   Anisotropy =    68.5475

      2  C    Isotropic =   118.3196   Anisotropy =    62.7011

      3  C    Isotropic =    92.2542   Anisotropy =    27.3924

      4  C    Isotropic =   118.4775   Anisotropy =    18.9993

      5  C    Isotropic =   119.6921   Anisotropy =    24.2450

      6  C    Isotropic =   121.1482   Anisotropy =    29.1564

      7  O    Isotropic =   232.1209   Anisotropy =    55.6269

      8  O    Isotropic =   266.7023   Anisotropy =    95.1088

      9  O    Isotropic =   302.9171   Anisotropy =    57.3991

     10  O    Isotropic =   301.9987   Anisotropy =    43.7609

     11  O    Isotropic =   296.0809   Anisotropy =    46.8593

     12  H    Isotropic =    27.4373   Anisotropy =     5.9974

     13  H    Isotropic =    27.7253   Anisotropy =    11.5961

     14  H    Isotropic =    27.1898   Anisotropy =     7.5547

     15  H    Isotropic =    26.2438   Anisotropy =     7.6714

     16  H    Isotropic =    28.0399   Anisotropy =     4.9231

     17  H    Isotropic =    28.1209   Anisotropy =     4.0700

     18  H    Isotropic =    27.8023   Anisotropy =     3.5045

     19  H    Isotropic =    29.7227   Anisotropy =    21.0646

     20  H    Isotropic =    29.0807   Anisotropy =    17.8334

     21  H    Isotropic =    30.0028   Anisotropy =    14.7078

 The electronic state is 1-A.
 Alpha  occ. eigenvalues --  -19.28207 -19.27295 -19.27122 -19.26469 -19.26199
 Alpha  occ. eigenvalues --  -10.36078 -10.32015 -10.31669 -10.31411 -10.31343
 Alpha  occ. eigenvalues --  -10.30829  -1.14615  -1.08414  -1.07290  -1.05736
 Alpha  occ. eigenvalues --   -1.04354  -0.82511  -0.81165  -0.70986  -0.68140
 Alpha  occ. eigenvalues --   -0.65173  -0.61512  -0.57542  -0.56599  -0.54431
 Alpha  occ. eigenvalues --   -0.51871  -0.50858  -0.48481  -0.48329  -0.46390
 Alpha  occ. eigenvalues --   -0.44439  -0.43198  -0.42344  -0.40403  -0.39672
 Alpha  occ. eigenvalues --   -0.38070  -0.37442  -0.36083  -0.33494  -0.31913
 Alpha  occ. eigenvalues --   -0.30728  -0.29536  -0.27999
 Alpha virt. eigenvalues --    0.00683   0.01338   0.01644   0.02674   0.03842
 Alpha virt. eigenvalues --    0.04556   0.04826   0.05461   0.05841   0.08290
 Alpha virt. eigenvalues --    0.08853   0.09570   0.09874   0.10619   0.11330

 Mulliken atomic charges:
              1
     1  C   -0.141546
     2  C    0.209451
     3  C   -0.122659
     4  C   -0.000619
     5  C    0.079610
     6  C   -0.175692
     7  O   -0.310525
     8  O   -0.394975
     9  O   -0.561335
    10  O   -0.553695
    11  O   -0.511340
    12  H    0.187782
    13  H    0.179844
    14  H    0.196955
    15  H    0.191302
    16  H    0.181817
    17  H    0.192031
    18  H    0.194478
    19  H    0.395551
    20  H    0.387592
    21  H    0.375970
 Sum of Mulliken atomic charges =   0.00000

 Dipole moment (field-independent basis, Debye):
    X=             -2.7199    Y=             -5.2207    Z=             -0.1409  Tot=              5.8884
 Quadrupole moment (field-independent basis, Debye-Ang):
   XX=            -60.8226   YY=            -69.8338   ZZ=            -64.6393
   XY=              5.1540   XZ=             -2.1952   YZ=             -1.1567

 Normal termination of Gaussian 09 at Fri Apr 12 12:20:32 2019.
