 Gaussian 09, Revision C.01,
 Gaussian 09:  EM64L-G09RevC.01 23-Sep-2011

 -----------------------------------------------------------
 # B3LYP/6-31+G** test scrf=(pcm,solvent=water,smd,dovacuum)
 -----------------------------------------------------------

 99/5=1,9=1/99;
 -------
 comment
 -------
 Charge =  0 Multiplicity = 1

                         Standard orientation:
 ---------------------------------------------------------------------
 Center     Atomic      Atomic             Coordinates (Angstroms)
 Number     Number       Type             X           Y           Z
 ---------------------------------------------------------------------
      1          6           0        0.001296   -1.827476   -0.898502
      2          6           0       -0.619532   -1.416282    0.440000
      3          6           0        1.423678   -0.556017    0.395445
      4          6           0       -0.413035    1.035869   -0.185630
      5          6           0        1.007860    0.929837    0.366913
      6          6           0       -1.329703   -0.050980    0.396710
      7          8           0        0.553083   -1.261617    1.262943
      8          8           0        1.278141   -1.156989   -0.890541
      9          8           0       -2.499149   -0.056785   -0.421527
     10          8           0       -0.934367    2.331523    0.089655
     11          8           0        1.862937    1.704963   -0.465286
     12          1           0       -0.589385   -1.500140   -1.758969
     13          1           0        0.160821   -2.909734   -0.956111
     14          1           0       -1.254497   -2.185583    0.884559
     15          1           0        2.454175   -0.685978    0.739159
     16          1           0       -0.352355    0.881212   -1.272958
     17          1           0        1.021114    1.302309    1.400996
     18          1           0       -1.579997    0.228874    1.428703
     19          1           0       -3.218946   -0.473987    0.078191
     20          1           0       -1.846574    2.323712   -0.247017
     21          1           0        2.697095    1.840859    0.011882
 ---------------------------------------------------------------------

 SCF Done:  E(RB3LYP) =  -610.811221905     A.U. after   12 cycles

 The electronic state is 1-A.
 Alpha  occ. eigenvalues --  -19.18533 -19.17504 -19.17352 -19.17150 -19.16875
 Alpha  occ. eigenvalues --  -10.29365 -10.24991 -10.24729 -10.24696 -10.24565
 Alpha  occ. eigenvalues --  -10.23866  -1.11136  -1.05124  -1.03927  -1.02489
 Alpha  occ. eigenvalues --   -1.01217  -0.79321  -0.78532  -0.68047  -0.65300
 Alpha  occ. eigenvalues --   -0.62704  -0.58269  -0.55017  -0.54450  -0.51494
 Alpha  occ. eigenvalues --   -0.51222  -0.49534  -0.46678  -0.44565  -0.44161
 Alpha  occ. eigenvalues --   -0.42810  -0.41832  -0.40560  -0.38961  -0.37614
 Alpha  occ. eigenvalues --   -0.36320  -0.35266  -0.33425  -0.32354  -0.30522
 Alpha  occ. eigenvalues --   -0.29472  -0.27813  -0.26274
 Alpha virt. eigenvalues --    0.00801   0.01406   0.01672   0.02712   0.03772
 Alpha virt. eigenvalues --    0.04882   0.05202   0.05632   0.05985   0.08528
 Alpha virt. eigenvalues --    0.08798   0.09757   0.10012   0.10743   0.11606

 Mulliken atomic charges:
              1
     1  C   -0.095526
     2  C    0.255315
     3  C    0.010993
     4  C    0.025238
     5  C    0.140183
     6  C   -0.080153
     7  O   -0.393945
     8  O   -0.436533
     9  O   -0.628590
    10  O   -0.637512
    11  O   -0.623873
    12  H    0.176962
    13  H    0.163970
    14  H    0.181380
    15  H    0.171106
    16  H    0.176371
    17  H    0.175381
    18  H    0.176662
    19  H    0.417454
    20  H    0.408624
    21  H    0.416493
 Sum of Mulliken atomic charges =   0.00000

 Dipole moment (field-independent basis, Debye):
    X=             -2.8836    Y=             -3.0659    Z=              2.8748  Tot=              5.0970
 Quadrupole moment (field-independent basis, Debye-Ang):
   XX=            -49.8641   YY=            -70.5109   ZZ=            -69.5588
   XY=              7.0810   XZ=              2.7217   YZ=              2.9766

 Normal termination of Gaussian 09 at Mon Apr 15 18:54:24 2019.
