 Gaussian 09, Revision C.01,
 Gaussian 09:  EM64L-G09RevC.01 23-Sep-2011

 ------------------------------------------------
 # mpw1pw91/6-31+g** nmr scrf=(pcm,solvent=water)
 ------------------------------------------------

 99/9=1/99;
 -------
 comment
 -------
 Charge =  0 Multiplicity = 1

                         Standard orientation:
 ---------------------------------------------------------------------
 Center     Atomic      Atomic             Coordinates (Angstroms)
 Number     Number       Type             X           Y           Z
 ---------------------------------------------------------------------
      1          6           0       -1.840519    0.049968   -0.894132
      2          6           0       -1.400209    0.662323    0.442759
      3          6           0       -0.603741   -1.413705    0.386146
      4          6           0        1.031744    0.382486   -0.185205
      5          6           0        0.883957   -1.034897    0.375617
      6          6           0       -0.014190    1.339559    0.410484
      7          8           0       -1.279648   -0.522097    1.255442
      8          8           0       -1.196699   -1.238568   -0.900307
      9          8           0       -0.005813    2.600897   -0.252462
     10          8           0        2.364319    0.813151    0.074602
     11          8           0        1.602912   -1.985321   -0.396976
     12          1           0       -1.524132    0.620848   -1.773874
     13          1           0       -2.926974   -0.083316   -0.933202
     14          1           0       -2.147905    1.318719    0.890794
     15          1           0       -0.762965   -2.441256    0.722478
     16          1           0        0.868341    0.315880   -1.272414
     17          1           0        1.230468   -1.041248    1.420174
     18          1           0        0.264619    1.560344    1.445626
     19          1           0       -0.198304    2.456539   -1.194441
     20          1           0        2.455536    1.697724   -0.317458
     21          1           0        2.518499   -1.663134   -0.444081
 ---------------------------------------------------------------------

 SCF Done:  E(RmPW1PW91) =  -610.649911058     A.U. after   12 cycles

      1  C    Isotropic =   130.7846   Anisotropy =    68.7768

      2  C    Isotropic =   118.0012   Anisotropy =    62.3294

      3  C    Isotropic =    93.0080   Anisotropy =    29.4111

      4  C    Isotropic =   117.7331   Anisotropy =    16.2114

      5  C    Isotropic =   119.0265   Anisotropy =    24.4216

      6  C    Isotropic =   121.1357   Anisotropy =    32.2565

      7  O    Isotropic =   229.0857   Anisotropy =    64.3498

      8  O    Isotropic =   265.2957   Anisotropy =    99.2954

      9  O    Isotropic =   300.9467   Anisotropy =    63.6066

     10  O    Isotropic =   306.2780   Anisotropy =    41.3821

     11  O    Isotropic =   301.4021   Anisotropy =    27.2659

     12  H    Isotropic =    27.6345   Anisotropy =     6.3032

     13  H    Isotropic =    27.6835   Anisotropy =    11.7032

     14  H    Isotropic =    27.1030   Anisotropy =     7.5842

     15  H    Isotropic =    26.1389   Anisotropy =     7.5786

     16  H    Isotropic =    28.0852   Anisotropy =     5.7201

     17  H    Isotropic =    27.9186   Anisotropy =     3.5435

     18  H    Isotropic =    27.9364   Anisotropy =     3.4996

     19  H    Isotropic =    30.7106   Anisotropy =    16.3684

     20  H    Isotropic =    29.0603   Anisotropy =    18.2714

     21  H    Isotropic =    29.2458   Anisotropy =    17.9322

 The electronic state is 1-A.
 Alpha  occ. eigenvalues --  -19.28160 -19.27298 -19.27105 -19.26712 -19.26465
 Alpha  occ. eigenvalues --  -10.36234 -10.32166 -10.31768 -10.31545 -10.31394
 Alpha  occ. eigenvalues --  -10.31141  -1.14610  -1.08705  -1.07421  -1.05882
 Alpha  occ. eigenvalues --   -1.04372  -0.82525  -0.81612  -0.71171  -0.68552
 Alpha  occ. eigenvalues --   -0.64703  -0.61882  -0.58110  -0.56347  -0.54250
 Alpha  occ. eigenvalues --   -0.51907  -0.50655  -0.49828  -0.47604  -0.46977
 Alpha  occ. eigenvalues --   -0.44150  -0.44095  -0.42937  -0.40192  -0.39239
 Alpha  occ. eigenvalues --   -0.38196  -0.37312  -0.36278  -0.34310  -0.31686
 Alpha  occ. eigenvalues --   -0.30228  -0.29369  -0.28552
 Alpha virt. eigenvalues --    0.00415   0.01213   0.01804   0.02530   0.04019
 Alpha virt. eigenvalues --    0.04622   0.04871   0.05421   0.05737   0.08147
 Alpha virt. eigenvalues --    0.08755   0.09445   0.09943   0.10483   0.11037

 Mulliken atomic charges:
              1
     1  C   -0.121683
     2  C    0.195194
     3  C   -0.136752
     4  C   -0.064813
     5  C    0.155390
     6  C   -0.194176
     7  O   -0.319325
     8  O   -0.357999
     9  O   -0.523701
    10  O   -0.566035
    11  O   -0.537057
    12  H    0.171196
    13  H    0.182743
    14  H    0.201096
    15  H    0.188141
    16  H    0.192326
    17  H    0.183776
    18  H    0.197795
    19  H    0.374000
    20  H    0.393564
    21  H    0.386321
 Sum of Mulliken atomic charges =   0.00000

 Dipole moment (field-independent basis, Debye):
    X=             -0.6711    Y=              3.0679    Z=             -1.4240  Tot=              3.4482
 Quadrupole moment (field-independent basis, Debye-Ang):
   XX=            -61.3032   YY=            -71.9135   ZZ=            -64.1647
   XY=             -1.6951   XZ=              0.2222   YZ=             -8.1431

 Normal termination of Gaussian 09 at Fri Apr 12 12:21:11 2019.
