 Gaussian 09, Revision C.01,
 Gaussian 09:  EM64L-G09RevC.01 23-Sep-2011

 ------------------------------------------------
 # mpw1pw91/6-31+g** nmr scrf=(pcm,solvent=water)
 ------------------------------------------------

 99/9=1/99;
 -------
 comment
 -------
 Charge =  0 Multiplicity = 1

                         Standard orientation:
 ---------------------------------------------------------------------
 Center     Atomic      Atomic             Coordinates (Angstroms)
 Number     Number       Type             X           Y           Z
 ---------------------------------------------------------------------
      1          6           0        1.172315   -1.337594   -0.933941
      2          6           0        0.431805   -1.489454    0.402823
      3          6           0        1.445879    0.485639    0.453202
      4          6           0       -0.987178    0.504757   -0.160309
      5          6           0        0.171459    1.343693    0.408328
      6          6           0       -0.995738   -0.924131    0.393937
      7          8           0        1.222840   -0.650263    1.264188
      8          8           0        1.736801   -0.008695   -0.858333
      9          8           0       -1.823487   -1.776683   -0.387294
     10          8           0       -2.265311    1.073244    0.112452
     11          8           0        0.360989    2.534008   -0.350483
     12          1           0        1.985179   -2.064509   -1.029671
     13          1           0        0.509719   -1.415341   -1.800134
     14          1           0        0.448474   -2.507144    0.796174
     15          1           0        2.308031    1.041326    0.830479
     16          1           0       -0.841874    0.435396   -1.248754
     17          1           0       -0.072421    1.666492    1.425439
     18          1           0       -1.345785   -0.892243    1.436630
     19          1           0       -2.676937   -1.319701   -0.477239
     20          1           0       -2.295575    1.932220   -0.340446
     21          1           0        0.695287    2.253159   -1.220957
 ---------------------------------------------------------------------

 SCF Done:  E(RmPW1PW91) =  -610.652622870     A.U. after   12 cycles

      1  C    Isotropic =   129.7072   Anisotropy =    68.1692

      2  C    Isotropic =   119.0219   Anisotropy =    62.8871

      3  C    Isotropic =    92.4248   Anisotropy =    27.9273

      4  C    Isotropic =   116.8119   Anisotropy =    13.7889

      5  C    Isotropic =   118.5026   Anisotropy =    19.4506

      6  C    Isotropic =   123.1821   Anisotropy =    35.5121

      7  O    Isotropic =   232.8919   Anisotropy =    63.1487

      8  O    Isotropic =   267.3383   Anisotropy =    94.1563

      9  O    Isotropic =   301.5390   Anisotropy =    31.9181

     10  O    Isotropic =   307.7763   Anisotropy =    39.9279

     11  O    Isotropic =   300.1103   Anisotropy =    54.3378

     12  H    Isotropic =    27.6818   Anisotropy =    11.5473

     13  H    Isotropic =    27.4155   Anisotropy =     6.0033

     14  H    Isotropic =    27.0370   Anisotropy =     7.6821

     15  H    Isotropic =    26.2424   Anisotropy =     7.6442

     16  H    Isotropic =    28.1219   Anisotropy =     5.6508

     17  H    Isotropic =    28.2614   Anisotropy =     3.8637

     18  H    Isotropic =    27.6864   Anisotropy =     4.0933

     19  H    Isotropic =    29.1166   Anisotropy =    17.9224

     20  H    Isotropic =    29.1825   Anisotropy =    18.8601

     21  H    Isotropic =    30.1698   Anisotropy =    15.1230

 The electronic state is 1-A.
 Alpha  occ. eigenvalues --  -19.28223 -19.27332 -19.26861 -19.26743 -19.26558
 Alpha  occ. eigenvalues --  -10.36157 -10.32149 -10.31619 -10.31461 -10.31314
 Alpha  occ. eigenvalues --  -10.30858  -1.14652  -1.08561  -1.07357  -1.05865
 Alpha  occ. eigenvalues --   -1.04414  -0.82679  -0.81203  -0.70905  -0.68558
 Alpha  occ. eigenvalues --   -0.64744  -0.61709  -0.58058  -0.56214  -0.54490
 Alpha  occ. eigenvalues --   -0.51517  -0.50908  -0.49539  -0.47644  -0.46577
 Alpha  occ. eigenvalues --   -0.44389  -0.43657  -0.43254  -0.40123  -0.38735
 Alpha  occ. eigenvalues --   -0.38565  -0.37072  -0.36456  -0.33876  -0.31776
 Alpha  occ. eigenvalues --   -0.30812  -0.29974  -0.27798
 Alpha virt. eigenvalues --    0.00605   0.01257   0.01885   0.02561   0.04151
 Alpha virt. eigenvalues --    0.04559   0.04626   0.05408   0.05844   0.08336
 Alpha virt. eigenvalues --    0.08819   0.09535   0.10073   0.10611   0.11259

 Mulliken atomic charges:
              1
     1  C   -0.131820
     2  C    0.181148
     3  C   -0.101074
     4  C   -0.074763
     5  C    0.050088
     6  C   -0.078586
     7  O   -0.311779
     8  O   -0.395325
     9  O   -0.539337
    10  O   -0.564318
    11  O   -0.521123
    12  H    0.180703
    13  H    0.189043
    14  H    0.198671
    15  H    0.191507
    16  H    0.189088
    17  H    0.196489
    18  H    0.183806
    19  H    0.386864
    20  H    0.392347
    21  H    0.378371
 Sum of Mulliken atomic charges =   0.00000

 Dipole moment (field-independent basis, Debye):
    X=             -0.4730    Y=             -0.2804    Z=             -1.5076  Tot=              1.6047
 Quadrupole moment (field-independent basis, Debye-Ang):
   XX=            -66.4681   YY=            -67.7688   ZZ=            -63.8129
   XY=             -3.5728   XZ=              1.6506   YZ=             -1.7430

 Normal termination of Gaussian 09 at Fri Apr 12 12:15:41 2019.
