 Gaussian 09, Revision C.01,
 Gaussian 09:  EM64L-G09RevC.01 23-Sep-2011

 -----------------------------------------------------------
 # B3LYP/6-31+G** test scrf=(pcm,solvent=water,smd,dovacuum)
 -----------------------------------------------------------

 99/5=1,9=1/99;
 -------
 comment
 -------
 Charge =  0 Multiplicity = 1

                         Standard orientation:
 ---------------------------------------------------------------------
 Center     Atomic      Atomic             Coordinates (Angstroms)
 Number     Number       Type             X           Y           Z
 ---------------------------------------------------------------------
      1          6           0       -1.840519    0.049968   -0.894132
      2          6           0       -1.400209    0.662323    0.442759
      3          6           0       -0.603741   -1.413705    0.386146
      4          6           0        1.031744    0.382486   -0.185205
      5          6           0        0.883957   -1.034897    0.375617
      6          6           0       -0.014190    1.339559    0.410484
      7          8           0       -1.279648   -0.522097    1.255442
      8          8           0       -1.196699   -1.238568   -0.900307
      9          8           0       -0.005813    2.600897   -0.252462
     10          8           0        2.364319    0.813151    0.074602
     11          8           0        1.602912   -1.985321   -0.396976
     12          1           0       -1.524132    0.620848   -1.773874
     13          1           0       -2.926974   -0.083316   -0.933202
     14          1           0       -2.147905    1.318719    0.890794
     15          1           0       -0.762965   -2.441256    0.722478
     16          1           0        0.868341    0.315880   -1.272414
     17          1           0        1.230468   -1.041248    1.420174
     18          1           0        0.264619    1.560344    1.445626
     19          1           0       -0.198304    2.456539   -1.194441
     20          1           0        2.455536    1.697724   -0.317458
     21          1           0        2.518499   -1.663134   -0.444081
 ---------------------------------------------------------------------

 SCF Done:  E(RB3LYP) =  -610.811165125     A.U. after   12 cycles

 The electronic state is 1-A.
 Alpha  occ. eigenvalues --  -19.18600 -19.17620 -19.17409 -19.17165 -19.17075
 Alpha  occ. eigenvalues --  -10.29621 -10.25170 -10.24751 -10.24642 -10.24510
 Alpha  occ. eigenvalues --  -10.24085  -1.11282  -1.05221  -1.04042  -1.02545
 Alpha  occ. eigenvalues --   -1.01341  -0.79329  -0.78548  -0.68239  -0.65801
 Alpha  occ. eigenvalues --   -0.62092  -0.59345  -0.55655  -0.54068  -0.51958
 Alpha  occ. eigenvalues --   -0.49546  -0.48509  -0.47643  -0.45487  -0.44856
 Alpha  occ. eigenvalues --   -0.42099  -0.42070  -0.41021  -0.38450  -0.37604
 Alpha  occ. eigenvalues --   -0.36415  -0.35544  -0.34517  -0.32542  -0.30008
 Alpha  occ. eigenvalues --   -0.28730  -0.27731  -0.26972
 Alpha virt. eigenvalues --    0.00623   0.01346   0.01988   0.02757   0.04210
 Alpha virt. eigenvalues --    0.04841   0.05122   0.05620   0.05862   0.08409
 Alpha virt. eigenvalues --    0.08957   0.09652   0.10135   0.10758   0.11307

 Mulliken atomic charges:
              1
     1  C   -0.101588
     2  C    0.257255
     3  C   -0.018842
     4  C    0.035288
     5  C    0.165523
     6  C   -0.108748
     7  O   -0.397046
     8  O   -0.437556
     9  O   -0.592142
    10  O   -0.643700
    11  O   -0.610004
    12  H    0.175663
    13  H    0.166483
    14  H    0.182008
    15  H    0.172538
    16  H    0.181558
    17  H    0.171043
    18  H    0.176260
    19  H    0.401774
    20  H    0.415069
    21  H    0.409166
 Sum of Mulliken atomic charges =   0.00000

 Dipole moment (field-independent basis, Debye):
    X=             -0.7013    Y=              3.4814    Z=             -1.6839  Tot=              3.9303
 Quadrupole moment (field-independent basis, Debye-Ang):
   XX=            -62.1563   YY=            -73.6351   ZZ=            -64.6707
   XY=             -2.0223   XZ=              0.2561   YZ=             -9.0740

 Normal termination of Gaussian 09 at Mon Apr 15 18:47:34 2019.
