 Gaussian 09, Revision C.01,
 Gaussian 09:  EM64L-G09RevC.01 23-Sep-2011

 -----------------------------------------------------------
 # B3LYP/6-31+G** test scrf=(pcm,solvent=water,smd,dovacuum)
 -----------------------------------------------------------

 99/5=1,9=1/99;
 -------
 comment
 -------
 Charge =  0 Multiplicity = 1

                         Standard orientation:
 ---------------------------------------------------------------------
 Center     Atomic      Atomic             Coordinates (Angstroms)
 Number     Number       Type             X           Y           Z
 ---------------------------------------------------------------------
      1          6           0       -1.804675   -0.249645   -0.907448
      2          6           0       -1.490920    0.411046    0.439668
      3          6           0       -0.358583   -1.498934    0.382118
      4          6           0        0.950371    0.549190   -0.179646
      5          6           0        1.042570   -0.870814    0.382072
      6          6           0       -0.241171    1.315246    0.407487
      7          8           0       -1.179293   -0.738191    1.251872
      8          8           0       -0.967154   -1.424938   -0.905524
      9          8           0       -0.419863    2.473234   -0.405902
     10          8           0        2.192161    1.198370    0.083166
     11          8           0        1.920960   -1.680587   -0.386539
     12          1           0       -1.556628    0.387099   -1.761442
     13          1           0       -2.854501   -0.554985   -0.973695
     14          1           0       -2.345777    0.924850    0.884426
     15          1           0       -0.340556   -2.539850    0.715114
     16          1           0        0.799238    0.463597   -1.264677
     17          1           0        1.378654   -0.821266    1.429100
     18          1           0       -0.000774    1.597522    1.441176
     19          1           0       -0.953683    3.113775    0.091068
     20          1           0        2.154394    2.062244   -0.359775
     21          1           0        2.759590   -1.192636   -0.443380
 ---------------------------------------------------------------------

 SCF Done:  E(RB3LYP) =  -610.811026510     A.U. after   12 cycles

 The electronic state is 1-A.
 Alpha  occ. eigenvalues --  -19.18555 -19.17577 -19.17307 -19.17134 -19.17084
 Alpha  occ. eigenvalues --  -10.29581 -10.25029 -10.24719 -10.24603 -10.24484
 Alpha  occ. eigenvalues --  -10.23904  -1.11202  -1.05201  -1.03989  -1.02507
 Alpha  occ. eigenvalues --   -1.01267  -0.79391  -0.78610  -0.67994  -0.65659
 Alpha  occ. eigenvalues --   -0.62361  -0.58541  -0.55437  -0.54742  -0.51317
 Alpha  occ. eigenvalues --   -0.50124  -0.48769  -0.47000  -0.46030  -0.44289
 Alpha  occ. eigenvalues --   -0.42688  -0.41838  -0.40895  -0.38974  -0.36907
 Alpha  occ. eigenvalues --   -0.36533  -0.35426  -0.34793  -0.31653  -0.29885
 Alpha  occ. eigenvalues --   -0.28843  -0.27819  -0.27159
 Alpha virt. eigenvalues --    0.00654   0.01275   0.01906   0.02752   0.04095
 Alpha virt. eigenvalues --    0.04761   0.05152   0.05579   0.06041   0.08552
 Alpha virt. eigenvalues --    0.08935   0.09660   0.10066   0.10720   0.11534

 Mulliken atomic charges:
              1
     1  C   -0.096891
     2  C    0.249618
     3  C   -0.005366
     4  C   -0.016100
     5  C    0.185076
     6  C   -0.062119
     7  O   -0.395695
     8  O   -0.439001
     9  O   -0.626781
    10  O   -0.644030
    11  O   -0.609342
    12  H    0.177729
    13  H    0.165043
    14  H    0.181642
    15  H    0.171919
    16  H    0.182090
    17  H    0.170406
    18  H    0.173781
    19  H    0.416752
    20  H    0.413348
    21  H    0.407922
 Sum of Mulliken atomic charges =   0.00000

 Dipole moment (field-independent basis, Debye):
    X=             -2.0799    Y=              5.3018    Z=              1.4044  Tot=              5.8658
 Quadrupole moment (field-independent basis, Debye-Ang):
   XX=            -60.5427   YY=            -63.5312   ZZ=            -68.6891
   XY=             -3.9263   XZ=             -0.7960   YZ=             -0.9900

 Normal termination of Gaussian 09 at Mon Apr 15 18:53:25 2019.
