 Gaussian 09, Revision C.01,
 Gaussian 09:  EM64L-G09RevC.01 23-Sep-2011

 ------------------------------------------------
 # mpw1pw91/6-31+g** nmr scrf=(pcm,solvent=water)
 ------------------------------------------------

 99/9=1/99;
 -------
 comment
 -------
 Charge =  0 Multiplicity = 1

                         Standard orientation:
 ---------------------------------------------------------------------
 Center     Atomic      Atomic             Coordinates (Angstroms)
 Number     Number       Type             X           Y           Z
 ---------------------------------------------------------------------
      1          6           0        0.847060   -1.596895   -0.907433
      2          6           0        0.048307   -1.548290    0.404063
      3          6           0        1.503516    0.126996    0.476722
      4          6           0       -0.840213    0.757175   -0.174110
      5          6           0        0.492292    1.282790    0.387271
      6          6           0       -1.192198   -0.638097    0.375465
      7          8           0        1.000276   -0.916793    1.282354
      8          8           0        1.693695   -0.431472   -0.829930
      9          8           0       -2.308300   -1.192036   -0.317230
     10          8           0       -1.870959    1.691982    0.115661
     11          8           0        1.022480    2.348508   -0.390355
     12          1           0        0.228476   -1.542706   -1.809333
     13          1           0        1.471775   -2.494314   -0.960997
     14          1           0       -0.195294   -2.534173    0.803133
     15          1           0        2.466605    0.460680    0.870493
     16          1           0       -0.718875    0.667183   -1.267498
     17          1           0        0.325686    1.687963    1.390504
     18          1           0       -1.529003   -0.525649    1.410851
     19          1           0       -2.083058   -1.263407   -1.260546
     20          1           0       -2.698808    1.281490   -0.188327
     21          1           0        1.282372    1.959349   -1.244135
 ---------------------------------------------------------------------

 SCF Done:  E(RmPW1PW91) =  -610.650112364     A.U. after   12 cycles

      1  C    Isotropic =   131.1927   Anisotropy =    69.0238

      2  C    Isotropic =   118.6520   Anisotropy =    61.3580

      3  C    Isotropic =    92.1919   Anisotropy =    27.4222

      4  C    Isotropic =   116.5225   Anisotropy =    13.5290

      5  C    Isotropic =   119.1613   Anisotropy =    23.1513

      6  C    Isotropic =   120.4627   Anisotropy =    31.2517

      7  O    Isotropic =   230.2614   Anisotropy =    57.9734

      8  O    Isotropic =   266.7203   Anisotropy =    94.3143

      9  O    Isotropic =   299.6769   Anisotropy =    65.7760

     10  O    Isotropic =   302.4809   Anisotropy =    43.4364

     11  O    Isotropic =   295.9614   Anisotropy =    46.0862

     12  H    Isotropic =    27.6671   Anisotropy =     6.3051

     13  H    Isotropic =    27.6961   Anisotropy =    11.7041

     14  H    Isotropic =    27.1035   Anisotropy =     7.6321

     15  H    Isotropic =    26.2329   Anisotropy =     7.6763

     16  H    Isotropic =    28.2425   Anisotropy =     5.0504

     17  H    Isotropic =    28.0866   Anisotropy =     4.0482

     18  H    Isotropic =    27.9483   Anisotropy =     3.4447

     19  H    Isotropic =    30.7169   Anisotropy =    16.4353

     20  H    Isotropic =    29.0609   Anisotropy =    17.6008

     21  H    Isotropic =    29.9961   Anisotropy =    14.6918

 The electronic state is 1-A.
 Alpha  occ. eigenvalues --  -19.28371 -19.27522 -19.27417 -19.26580 -19.26365
 Alpha  occ. eigenvalues --  -10.36244 -10.32284 -10.31836 -10.31695 -10.31507
 Alpha  occ. eigenvalues --  -10.31324  -1.14843  -1.08661  -1.07447  -1.05923
 Alpha  occ. eigenvalues --   -1.04589  -0.82628  -0.81296  -0.71447  -0.68404
 Alpha  occ. eigenvalues --   -0.65010  -0.62755  -0.58083  -0.54810  -0.54373
 Alpha  occ. eigenvalues --   -0.53360  -0.51936  -0.48601  -0.47742  -0.46182
 Alpha  occ. eigenvalues --   -0.44466  -0.43522  -0.43333  -0.39912  -0.39704
 Alpha  occ. eigenvalues --   -0.38387  -0.37751  -0.35808  -0.35072  -0.32001
 Alpha  occ. eigenvalues --   -0.30878  -0.29411  -0.28101
 Alpha virt. eigenvalues --    0.00564   0.01299   0.01910   0.02396   0.04045
 Alpha virt. eigenvalues --    0.04417   0.04956   0.05366   0.05561   0.08010
 Alpha virt. eigenvalues --    0.08823   0.09554   0.09972   0.10495   0.10909

 Mulliken atomic charges:
              1
     1  C   -0.131922
     2  C    0.199126
     3  C   -0.135853
     4  C    0.024818
     5  C    0.072327
     6  C   -0.213008
     7  O   -0.311915
     8  O   -0.392274
     9  O   -0.523908
    10  O   -0.546782
    11  O   -0.510771
    12  H    0.175333
    13  H    0.185270
    14  H    0.202428
    15  H    0.192955
    16  H    0.175816
    17  H    0.193987
    18  H    0.202074
    19  H    0.376664
    20  H    0.389085
    21  H    0.376552
 Sum of Mulliken atomic charges =   0.00000

 Dipole moment (field-independent basis, Debye):
    X=             -0.5472    Y=             -4.1661    Z=             -2.7440  Tot=              5.0185
 Quadrupole moment (field-independent basis, Debye-Ang):
   XX=            -68.7206   YY=            -72.9647   ZZ=            -60.4216
   XY=              0.1674   XZ=              3.5812   YZ=              2.6946

 Normal termination of Gaussian 09 at Fri Apr 12 12:24:51 2019.
