 Gaussian 09, Revision C.01,
 Gaussian 09:  EM64L-G09RevC.01 23-Sep-2011

 ------------------------------------------------
 # mpw1pw91/6-31+g** nmr scrf=(pcm,solvent=water)
 ------------------------------------------------

 99/9=1/99;
 -------
 comment
 -------
 Charge =  0 Multiplicity = 1

                         Standard orientation:
 ---------------------------------------------------------------------
 Center     Atomic      Atomic             Coordinates (Angstroms)
 Number     Number       Type             X           Y           Z
 ---------------------------------------------------------------------
      1          6           0       -1.804675   -0.249645   -0.907448
      2          6           0       -1.490920    0.411046    0.439668
      3          6           0       -0.358583   -1.498934    0.382118
      4          6           0        0.950371    0.549190   -0.179646
      5          6           0        1.042570   -0.870814    0.382072
      6          6           0       -0.241171    1.315246    0.407487
      7          8           0       -1.179293   -0.738191    1.251872
      8          8           0       -0.967154   -1.424938   -0.905524
      9          8           0       -0.419863    2.473234   -0.405902
     10          8           0        2.192161    1.198370    0.083166
     11          8           0        1.920960   -1.680587   -0.386539
     12          1           0       -1.556628    0.387099   -1.761442
     13          1           0       -2.854501   -0.554985   -0.973695
     14          1           0       -2.345777    0.924850    0.884426
     15          1           0       -0.340556   -2.539850    0.715114
     16          1           0        0.799238    0.463597   -1.264677
     17          1           0        1.378654   -0.821266    1.429100
     18          1           0       -0.000774    1.597522    1.441176
     19          1           0       -0.953683    3.113775    0.091068
     20          1           0        2.154394    2.062244   -0.359775
     21          1           0        2.759590   -1.192636   -0.443380
 ---------------------------------------------------------------------

 SCF Done:  E(RmPW1PW91) =  -610.651766246     A.U. after   12 cycles

      1  C    Isotropic =   130.1572   Anisotropy =    68.0424

      2  C    Isotropic =   117.6858   Anisotropy =    63.1332

      3  C    Isotropic =    93.1503   Anisotropy =    29.8330

      4  C    Isotropic =   119.5700   Anisotropy =    21.5827

      5  C    Isotropic =   119.3354   Anisotropy =    25.3578

      6  C    Isotropic =   121.8506   Anisotropy =    30.4680

      7  O    Isotropic =   231.2185   Anisotropy =    63.0684

      8  O    Isotropic =   266.3930   Anisotropy =    99.9213

      9  O    Isotropic =   303.5063   Anisotropy =    57.7146

     10  O    Isotropic =   306.4231   Anisotropy =    40.9924

     11  O    Isotropic =   301.5963   Anisotropy =    27.1219

     12  H    Isotropic =    27.3678   Anisotropy =     6.0055

     13  H    Isotropic =    27.7225   Anisotropy =    11.5800

     14  H    Isotropic =    27.2025   Anisotropy =     7.4987

     15  H    Isotropic =    26.1438   Anisotropy =     7.5469

     16  H    Isotropic =    27.8957   Anisotropy =     5.6890

     17  H    Isotropic =    27.9413   Anisotropy =     3.5912

     18  H    Isotropic =    27.7866   Anisotropy =     3.5663

     19  H    Isotropic =    29.7751   Anisotropy =    21.0650

     20  H    Isotropic =    29.0451   Anisotropy =    18.4813

     21  H    Isotropic =    29.1995   Anisotropy =    17.8386

 The electronic state is 1-A.
 Alpha  occ. eigenvalues --  -19.27990 -19.27016 -19.26863 -19.26576 -19.26349
 Alpha  occ. eigenvalues --  -10.36071 -10.31889 -10.31617 -10.31292 -10.31226
 Alpha  occ. eigenvalues --  -10.30608  -1.14369  -1.08505  -1.07235  -1.05707
 Alpha  occ. eigenvalues --   -1.04126  -0.82405  -0.81488  -0.70698  -0.68239
 Alpha  occ. eigenvalues --   -0.64803  -0.60877  -0.57702  -0.56914  -0.53480
 Alpha  occ. eigenvalues --   -0.52267  -0.50819  -0.48929  -0.47979  -0.46170
 Alpha  occ. eigenvalues --   -0.44586  -0.43722  -0.42646  -0.40677  -0.38531
 Alpha  occ. eigenvalues --   -0.37847  -0.37001  -0.36443  -0.33270  -0.31408
 Alpha  occ. eigenvalues --   -0.30274  -0.29291  -0.28539
 Alpha virt. eigenvalues --    0.00549   0.01163   0.01783   0.02548   0.03950
 Alpha virt. eigenvalues --    0.04524   0.05054   0.05462   0.05947   0.08359
 Alpha virt. eigenvalues --    0.08804   0.09419   0.09983   0.10542   0.11378

 Mulliken atomic charges:
              1
     1  C   -0.138467
     2  C    0.209945
     3  C   -0.117925
     4  C   -0.077756
     5  C    0.158523
     6  C   -0.164921
     7  O   -0.319001
     8  O   -0.361695
     9  O   -0.562803
    10  O   -0.573863
    11  O   -0.537841
    12  H    0.186391
    13  H    0.176923
    14  H    0.195969
    15  H    0.186275
    16  H    0.196425
    17  H    0.181345
    18  H    0.190534
    19  H    0.394202
    20  H    0.392588
    21  H    0.385152
 Sum of Mulliken atomic charges =   0.00000

 Dipole moment (field-independent basis, Debye):
    X=             -1.9127    Y=              4.8190    Z=              1.2251  Tot=              5.3275
 Quadrupole moment (field-independent basis, Debye-Ang):
   XX=            -60.1385   YY=            -62.6836   ZZ=            -67.9220
   XY=             -3.5399   XZ=             -0.7634   YZ=             -0.9327

 Normal termination of Gaussian 09 at Fri Apr 12 12:16:06 2019.
