 Gaussian 09, Revision C.01,
 Gaussian 09:  EM64L-G09RevC.01 23-Sep-2011

 -----------------------------------------------------------
 # B3LYP/6-31+G** test scrf=(pcm,solvent=water,smd,dovacuum)
 -----------------------------------------------------------

 99/5=1,9=1/99;
 -------
 comment
 -------
 Charge =  0 Multiplicity = 1

                         Standard orientation:
 ---------------------------------------------------------------------
 Center     Atomic      Atomic             Coordinates (Angstroms)
 Number     Number       Type             X           Y           Z
 ---------------------------------------------------------------------
      1          6           0        0.902035   -1.611240   -0.885859
      2          6           0        0.138480   -1.542143    0.442635
      3          6           0        1.510789    0.202366    0.398243
      4          6           0       -0.864510    0.708496   -0.190225
      5          6           0        0.431140    1.304238    0.362851
      6          6           0       -1.141201   -0.687568    0.400784
      7          8           0        1.087279   -0.835281    1.265067
      8          8           0        1.675017   -0.396870   -0.887849
      9          8           0       -2.235602   -1.312148   -0.266262
     10          8           0       -1.948185    1.589277    0.079443
     11          8           0        0.809955    2.392030   -0.472113
     12          1           0        0.257433   -1.636906   -1.771200
     13          1           0        1.574371   -2.475615   -0.914996
     14          1           0       -0.054416   -2.518436    0.890280
     15          1           0        2.475652    0.585370    0.743370
     16          1           0       -0.728370    0.606583   -1.279309
     17          1           0        0.259180    1.640512    1.395056
     18          1           0       -1.476808   -0.559478    1.434792
     19          1           0       -2.009160   -1.409094   -1.206968
     20          1           0       -2.749579    1.118388   -0.207381
     21          1           0        1.483591    2.907718   -0.000506
 ---------------------------------------------------------------------

 SCF Done:  E(RB3LYP) =  -610.811217873     A.U. after   12 cycles

 The electronic state is 1-A.
 Alpha  occ. eigenvalues --  -19.18586 -19.17554 -19.17464 -19.17190 -19.16897
 Alpha  occ. eigenvalues --  -10.29417 -10.25139 -10.24768 -10.24740 -10.24611
 Alpha  occ. eigenvalues --  -10.24044  -1.11221  -1.05175  -1.03987  -1.02538
 Alpha  occ. eigenvalues --   -1.01297  -0.79229  -0.78515  -0.68348  -0.65353
 Alpha  occ. eigenvalues --   -0.62391  -0.59135  -0.55594  -0.53824  -0.52265
 Alpha  occ. eigenvalues --   -0.50348  -0.48251  -0.47466  -0.45348  -0.44351
 Alpha  occ. eigenvalues --   -0.42246  -0.41634  -0.40928  -0.39071  -0.37320
 Alpha  occ. eigenvalues --   -0.36397  -0.35435  -0.34277  -0.31593  -0.30973
 Alpha  occ. eigenvalues --   -0.29597  -0.27713  -0.26230
 Alpha virt. eigenvalues --    0.00845   0.01404   0.01702   0.02747   0.03938
 Alpha virt. eigenvalues --    0.04966   0.05168   0.05640   0.05814   0.08382
 Alpha virt. eigenvalues --    0.08826   0.09860   0.10004   0.10731   0.11369

 Mulliken atomic charges:
              1
     1  C   -0.101481
     2  C    0.259965
     3  C   -0.003241
     4  C    0.079601
     5  C    0.122299
     6  C   -0.128338
     7  O   -0.395734
     8  O   -0.435278
     9  O   -0.594900
    10  O   -0.636188
    11  O   -0.622985
    12  H    0.175349
    13  H    0.165673
    14  H    0.181927
    15  H    0.171725
    16  H    0.176533
    17  H    0.175725
    18  H    0.178974
    19  H    0.403623
    20  H    0.410294
    21  H    0.416459
 Sum of Mulliken atomic charges =   0.00000

 Dipole moment (field-independent basis, Debye):
    X=              0.5963    Y=             -2.7150    Z=             -0.2463  Tot=              2.7906
 Quadrupole moment (field-independent basis, Debye-Ang):
   XX=            -67.6038   YY=            -64.7937   ZZ=            -65.4134
   XY=              6.4855   XZ=              7.3510   YZ=              8.9772

 Normal termination of Gaussian 09 at Mon Apr 15 19:04:42 2019.
