 Gaussian 09, Revision C.01,
 Gaussian 09:  EM64L-G09RevC.01 23-Sep-2011

 -----------------------------------------------------------
 # B3LYP/6-31+G** test scrf=(pcm,solvent=water,smd,dovacuum)
 -----------------------------------------------------------

 99/5=1,9=1/99;
 -------
 comment
 -------
 Charge =  0 Multiplicity = 1

                         Standard orientation:
 ---------------------------------------------------------------------
 Center     Atomic      Atomic             Coordinates (Angstroms)
 Number     Number       Type             X           Y           Z
 ---------------------------------------------------------------------
      1          6           0       -1.820904    0.096043   -0.905817
      2          6           0       -1.391629    0.684686    0.443202
      3          6           0       -0.634443   -1.405638    0.382147
      4          6           0        1.023142    0.363299   -0.187434
      5          6           0        0.861506   -1.051579    0.382721
      6          6           0       -0.000360    1.339986    0.413445
      7          8           0       -1.295350   -0.502092    1.252318
      8          8           0       -1.215450   -1.214400   -0.905439
      9          8           0       -0.069440    2.542981   -0.338936
     10          8           0        2.361603    0.852894   -0.071696
     11          8           0        1.576582   -2.008617   -0.383137
     12          1           0       -1.457245    0.676212   -1.758455
     13          1           0       -2.908975   -0.008922   -0.972951
     14          1           0       -2.133013    1.350820    0.887499
     15          1           0       -0.816575   -2.430711    0.714804
     16          1           0        0.851663    0.302272   -1.266280
     17          1           0        1.195034   -1.068595    1.433170
     18          1           0        0.280981    1.553310    1.457720
     19          1           0        0.849663    2.827784   -0.481413
     20          1           0        2.573135    0.928920    0.875329
     21          1           0        2.477917   -1.657998   -0.483877
 ---------------------------------------------------------------------

 SCF Done:  E(RB3LYP) =  -610.810844372     A.U. after   12 cycles

 The electronic state is 1-A.
 Alpha  occ. eigenvalues --  -19.18602 -19.17601 -19.17405 -19.17161 -19.17153
 Alpha  occ. eigenvalues --  -10.29617 -10.25241 -10.24777 -10.24591 -10.24529
 Alpha  occ. eigenvalues --  -10.23951  -1.11271  -1.05274  -1.04072  -1.02543
 Alpha  occ. eigenvalues --   -1.01323  -0.79553  -0.78380  -0.67872  -0.66255
 Alpha  occ. eigenvalues --   -0.61807  -0.59613  -0.55402  -0.52974  -0.52554
 Alpha  occ. eigenvalues --   -0.50293  -0.48984  -0.46695  -0.45593  -0.44439
 Alpha  occ. eigenvalues --   -0.42640  -0.42577  -0.41168  -0.38421  -0.36934
 Alpha  occ. eigenvalues --   -0.36857  -0.35394  -0.34527  -0.31770  -0.30483
 Alpha  occ. eigenvalues --   -0.29107  -0.27402  -0.27093
 Alpha virt. eigenvalues --    0.00570   0.01378   0.02194   0.02467   0.04378
 Alpha virt. eigenvalues --    0.04694   0.05271   0.05406   0.06080   0.08422
 Alpha virt. eigenvalues --    0.08868   0.09898   0.10215   0.10606   0.11426

 Mulliken atomic charges:
              1
     1  C   -0.090736
     2  C    0.218409
     3  C    0.014925
     4  C   -0.106659
     5  C    0.185319
     6  C    0.009427
     7  O   -0.396938
     8  O   -0.438320
     9  O   -0.603306
    10  O   -0.638901
    11  O   -0.603849
    12  H    0.179516
    13  H    0.165795
    14  H    0.182317
    15  H    0.171830
    16  H    0.189978
    17  H    0.169604
    18  H    0.166640
    19  H    0.408556
    20  H    0.408325
    21  H    0.408068
 Sum of Mulliken atomic charges =   0.00000

 Dipole moment (field-independent basis, Debye):
    X=              1.9979    Y=              2.7597    Z=              2.9451  Tot=              4.5034
 Quadrupole moment (field-independent basis, Debye-Ang):
   XX=            -59.3732   YY=            -73.5125   ZZ=            -66.0551
   XY=              0.7655   XZ=              6.1490   YZ=             -1.3908

 Normal termination of Gaussian 09 at Mon Apr 15 19:03:30 2019.
