 Gaussian 09, Revision C.01,
 Gaussian 09:  EM64L-G09RevC.01 23-Sep-2011

 ------------------------------------------------
 # mpw1pw91/6-31+g** nmr scrf=(pcm,solvent=water)
 ------------------------------------------------

 99/9=1/99;
 -------
 comment
 -------
 Charge =  0 Multiplicity = 1

                         Standard orientation:
 ---------------------------------------------------------------------
 Center     Atomic      Atomic             Coordinates (Angstroms)
 Number     Number       Type             X           Y           Z
 ---------------------------------------------------------------------
      1          6           0        0.001296   -1.827476   -0.898502
      2          6           0       -0.619532   -1.416282    0.440000
      3          6           0        1.423678   -0.556017    0.395445
      4          6           0       -0.413035    1.035869   -0.185630
      5          6           0        1.007860    0.929837    0.366913
      6          6           0       -1.329703   -0.050980    0.396710
      7          8           0        0.553083   -1.261617    1.262943
      8          8           0        1.278141   -1.156989   -0.890541
      9          8           0       -2.499149   -0.056785   -0.421527
     10          8           0       -0.934367    2.331523    0.089655
     11          8           0        1.862937    1.704963   -0.465286
     12          1           0       -0.589385   -1.500140   -1.758969
     13          1           0        0.160821   -2.909734   -0.956111
     14          1           0       -1.254497   -2.185583    0.884559
     15          1           0        2.454175   -0.685978    0.739159
     16          1           0       -0.352355    0.881212   -1.272958
     17          1           0        1.021114    1.302309    1.400996
     18          1           0       -1.579997    0.228874    1.428703
     19          1           0       -3.218946   -0.473987    0.078191
     20          1           0       -1.846574    2.323712   -0.247017
     21          1           0        2.697095    1.840859    0.011882
 ---------------------------------------------------------------------

 SCF Done:  E(RmPW1PW91) =  -610.650716951     A.U. after   12 cycles

      1  C    Isotropic =   130.3233   Anisotropy =    67.8192

      2  C    Isotropic =   118.3434   Anisotropy =    62.2828

      3  C    Isotropic =    91.8937   Anisotropy =    26.1896

      4  C    Isotropic =   121.2772   Anisotropy =    26.6287

      5  C    Isotropic =   119.4942   Anisotropy =    25.5591

      6  C    Isotropic =   121.0049   Anisotropy =    28.9616

      7  O    Isotropic =   232.1537   Anisotropy =    56.7839

      8  O    Isotropic =   266.9596   Anisotropy =   100.0153

      9  O    Isotropic =   303.3684   Anisotropy =    56.4926

     10  O    Isotropic =   301.8801   Anisotropy =    46.3441

     11  O    Isotropic =   300.3725   Anisotropy =    63.4460

     12  H    Isotropic =    27.3945   Anisotropy =     6.0528

     13  H    Isotropic =    27.7457   Anisotropy =    11.5953

     14  H    Isotropic =    27.2182   Anisotropy =     7.5256

     15  H    Isotropic =    26.3261   Anisotropy =     7.4549

     16  H    Isotropic =    27.8230   Anisotropy =     5.0631

     17  H    Isotropic =    27.9421   Anisotropy =     3.3667

     18  H    Isotropic =    27.7994   Anisotropy =     3.5256

     19  H    Isotropic =    29.7204   Anisotropy =    21.1133

     20  H    Isotropic =    29.0647   Anisotropy =    17.6710

     21  H    Isotropic =    29.8344   Anisotropy =    20.7511

 The electronic state is 1-A.
 Alpha  occ. eigenvalues --  -19.27974 -19.27081 -19.26800 -19.26454 -19.26052
 Alpha  occ. eigenvalues --  -10.35899 -10.31837 -10.31602 -10.31353 -10.31273
 Alpha  occ. eigenvalues --  -10.30564  -1.14312  -1.08364  -1.07159  -1.05573
 Alpha  occ. eigenvalues --   -1.04083  -0.82322  -0.81391  -0.70752  -0.67843
 Alpha  occ. eigenvalues --   -0.65144  -0.60598  -0.57172  -0.56638  -0.53573
 Alpha  occ. eigenvalues --   -0.53353  -0.51654  -0.48581  -0.46359  -0.46097
 Alpha  occ. eigenvalues --   -0.44689  -0.43699  -0.42202  -0.40632  -0.39223
 Alpha  occ. eigenvalues --   -0.37602  -0.36863  -0.34965  -0.33942  -0.32037
 Alpha  occ. eigenvalues --   -0.30835  -0.29271  -0.27564
 Alpha virt. eigenvalues --    0.00668   0.01312   0.01535   0.02490   0.03626
 Alpha virt. eigenvalues --    0.04659   0.05100   0.05524   0.05898   0.08344
 Alpha virt. eigenvalues --    0.08605   0.09500   0.09954   0.10562   0.11464

 Mulliken atomic charges:
              1
     1  C   -0.139344
     2  C    0.222488
     3  C   -0.134167
     4  C   -0.017937
     5  C    0.123187
     6  C   -0.186808
     7  O   -0.316494
     8  O   -0.356276
     9  O   -0.565781
    10  O   -0.560584
    11  O   -0.549543
    12  H    0.185985
    13  H    0.175984
    14  H    0.195704
    15  H    0.184607
    16  H    0.189186
    17  H    0.185480
    18  H    0.192864
    19  H    0.395406
    20  H    0.385908
    21  H    0.390137
 Sum of Mulliken atomic charges =   0.00000

 Dipole moment (field-independent basis, Debye):
    X=             -2.6205    Y=             -2.7897    Z=              2.5423  Tot=              4.5949
 Quadrupole moment (field-independent basis, Debye-Ang):
   XX=            -50.2613   YY=            -69.3037   ZZ=            -68.7151
   XY=              6.5074   XZ=              2.5146   YZ=              2.6971

 Normal termination of Gaussian 09 at Fri Apr 12 12:25:26 2019.
