 Gaussian 09, Revision C.01,
 Gaussian 09:  EM64L-G09RevC.01 23-Sep-2011

 ------------------------------------------------
 # mpw1pw91/6-31+g** nmr scrf=(pcm,solvent=water)
 ------------------------------------------------

 99/9=1/99;
 -------
 comment
 -------
 Charge =  0 Multiplicity = 1

                         Standard orientation:
 ---------------------------------------------------------------------
 Center     Atomic      Atomic             Coordinates (Angstroms)
 Number     Number       Type             X           Y           Z
 ---------------------------------------------------------------------
      1          6           0       -1.820904    0.096043   -0.905817
      2          6           0       -1.391629    0.684686    0.443202
      3          6           0       -0.634443   -1.405638    0.382147
      4          6           0        1.023142    0.363299   -0.187434
      5          6           0        0.861506   -1.051579    0.382721
      6          6           0       -0.000360    1.339986    0.413445
      7          8           0       -1.295350   -0.502092    1.252318
      8          8           0       -1.215450   -1.214400   -0.905439
      9          8           0       -0.069440    2.542981   -0.338936
     10          8           0        2.361603    0.852894   -0.071696
     11          8           0        1.576582   -2.008617   -0.383137
     12          1           0       -1.457245    0.676212   -1.758455
     13          1           0       -2.908975   -0.008922   -0.972951
     14          1           0       -2.133013    1.350820    0.887499
     15          1           0       -0.816575   -2.430711    0.714804
     16          1           0        0.851663    0.302272   -1.266280
     17          1           0        1.195034   -1.068595    1.433170
     18          1           0        0.280981    1.553310    1.457720
     19          1           0        0.849663    2.827784   -0.481413
     20          1           0        2.573135    0.928920    0.875329
     21          1           0        2.477917   -1.657998   -0.483877
 ---------------------------------------------------------------------

 SCF Done:  E(RmPW1PW91) =  -610.650917124     A.U. after   12 cycles

      1  C    Isotropic =   129.5092   Anisotropy =    68.2978

      2  C    Isotropic =   118.5514   Anisotropy =    63.4747

      3  C    Isotropic =    92.8521   Anisotropy =    30.4498

      4  C    Isotropic =   117.1154   Anisotropy =    19.0807

      5  C    Isotropic =   118.6472   Anisotropy =    22.0565

      6  C    Isotropic =   121.8775   Anisotropy =    31.1265

      7  O    Isotropic =   232.1470   Anisotropy =    66.9471

      8  O    Isotropic =   266.2942   Anisotropy =   100.8618

      9  O    Isotropic =   303.7257   Anisotropy =    31.8509

     10  O    Isotropic =   304.9762   Anisotropy =   111.2460

     11  O    Isotropic =   303.5327   Anisotropy =    27.6267

     12  H    Isotropic =    27.3192   Anisotropy =     6.0374

     13  H    Isotropic =    27.6769   Anisotropy =    11.5571

     14  H    Isotropic =    27.0151   Anisotropy =     7.6442

     15  H    Isotropic =    26.1126   Anisotropy =     7.5391

     16  H    Isotropic =    28.1394   Anisotropy =     5.5544

     17  H    Isotropic =    28.1590   Anisotropy =     3.5180

     18  H    Isotropic =    27.8920   Anisotropy =     3.9898

     19  H    Isotropic =    29.0815   Anisotropy =    17.7751

     20  H    Isotropic =    31.0172   Anisotropy =    18.1683

     21  H    Isotropic =    29.2152   Anisotropy =    17.7639

 The electronic state is 1-A.
 Alpha  occ. eigenvalues --  -19.28092 -19.27380 -19.26969 -19.26654 -19.26512
 Alpha  occ. eigenvalues --  -10.36209 -10.32123 -10.31747 -10.31540 -10.31423
 Alpha  occ. eigenvalues --  -10.30697  -1.14512  -1.08829  -1.07290  -1.05975
 Alpha  occ. eigenvalues --   -1.04254  -0.82597  -0.81456  -0.70653  -0.69012
 Alpha  occ. eigenvalues --   -0.64270  -0.62150  -0.57701  -0.55330  -0.54829
 Alpha  occ. eigenvalues --   -0.52391  -0.51230  -0.48945  -0.47535  -0.46461
 Alpha  occ. eigenvalues --   -0.44617  -0.44482  -0.43053  -0.40078  -0.38712
 Alpha  occ. eigenvalues --   -0.38417  -0.36945  -0.36292  -0.33616  -0.32128
 Alpha  occ. eigenvalues --   -0.30659  -0.28882  -0.28641
 Alpha virt. eigenvalues --    0.00406   0.01282   0.02072   0.02214   0.04222
 Alpha virt. eigenvalues --    0.04466   0.05119   0.05285   0.05896   0.08211
 Alpha virt. eigenvalues --    0.08712   0.09767   0.09957   0.10395   0.11177

 Mulliken atomic charges:
              1
     1  C   -0.127430
     2  C    0.192317
     3  C   -0.094614
     4  C   -0.180203
     5  C    0.136085
     6  C   -0.090576
     7  O   -0.318745
     8  O   -0.362482
     9  O   -0.531027
    10  O   -0.575136
    11  O   -0.527297
    12  H    0.188474
    13  H    0.178350
    14  H    0.198268
    15  H    0.187175
    16  H    0.210952
    17  H    0.178767
    18  H    0.178476
    19  H    0.386774
    20  H    0.386976
    21  H    0.384897
 Sum of Mulliken atomic charges =   0.00000

 Dipole moment (field-independent basis, Debye):
    X=              1.7337    Y=              2.4738    Z=              2.5754  Tot=              3.9696
 Quadrupole moment (field-independent basis, Debye-Ang):
   XX=            -58.9047   YY=            -71.8879   ZZ=            -65.4245
   XY=              0.7580   XZ=              5.5435   YZ=             -1.3011

 Normal termination of Gaussian 09 at Fri Apr 12 12:21:14 2019.
