 Gaussian 09, Revision C.01,
 Gaussian 09:  EM64L-G09RevC.01 23-Sep-2011

 -----------------------------------------------------------
 # B3LYP/6-31+G** test scrf=(pcm,solvent=water,smd,dovacuum)
 -----------------------------------------------------------

 99/5=1,9=1/99;
 -------
 comment
 -------
 Charge =  0 Multiplicity = 1

                         Standard orientation:
 ---------------------------------------------------------------------
 Center     Atomic      Atomic             Coordinates (Angstroms)
 Number     Number       Type             X           Y           Z
 ---------------------------------------------------------------------
      1          6           0        0.662774   -1.657638   -0.920276
      2          6           0       -0.104448   -1.541798    0.403524
      3          6           0        1.512945   -0.027129    0.472821
      4          6           0       -0.758470    0.836768   -0.167439
      5          6           0        0.620611    1.222901    0.392150
      6          6           0       -1.249507   -0.513703    0.374026
      7          8           0        0.911588   -1.015967    1.280002
      8          8           0        1.642551   -0.599006   -0.834671
      9          8           0       -2.330880   -0.907117   -0.469823
     10          8           0       -1.687238    1.873469    0.127049
     11          8           0        1.251740    2.232856   -0.384825
     12          1           0        0.024531   -1.510499   -1.796076
     13          1           0        1.182358   -2.617501   -1.005370
     14          1           0       -0.437568   -2.503451    0.799467
     15          1           0        2.506026    0.209424    0.862663
     16          1           0       -0.655588    0.731383   -1.258832
     17          1           0        0.500929    1.638854    1.397815
     18          1           0       -1.594208   -0.368785    1.406491
     19          1           0       -2.859859   -1.570297    0.001861
     20          1           0       -2.539025    1.579754   -0.238424
     21          1           0        1.466876    1.820830   -1.240301
 ---------------------------------------------------------------------

 SCF Done:  E(RB3LYP) =  -610.811796424     A.U. after   12 cycles

 The electronic state is 1-A.
 Alpha  occ. eigenvalues --  -19.18688 -19.17695 -19.17358 -19.17186 -19.16905
 Alpha  occ. eigenvalues --  -10.29475 -10.25076 -10.24720 -10.24660 -10.24537
 Alpha  occ. eigenvalues --  -10.23974  -1.11281  -1.05106  -1.04063  -1.02573
 Alpha  occ. eigenvalues --   -1.01283  -0.79400  -0.78207  -0.68187  -0.65473
 Alpha  occ. eigenvalues --   -0.62645  -0.59060  -0.55268  -0.54280  -0.52296
 Alpha  occ. eigenvalues --   -0.49642  -0.48754  -0.46419  -0.46256  -0.44464
 Alpha  occ. eigenvalues --   -0.42451  -0.41388  -0.40495  -0.38566  -0.38095
 Alpha  occ. eigenvalues --   -0.36533  -0.35759  -0.34414  -0.31873  -0.30305
 Alpha  occ. eigenvalues --   -0.29244  -0.27930  -0.26565
 Alpha virt. eigenvalues --    0.00832   0.01412   0.01824   0.02835   0.04005
 Alpha virt. eigenvalues --    0.04720   0.05068   0.05575   0.05964   0.08445
 Alpha virt. eigenvalues --    0.09053   0.09790   0.10051   0.10777   0.11520

 Mulliken atomic charges:
              1
     1  C   -0.098067
     2  C    0.243984
     3  C   -0.006136
     4  C    0.048151
     5  C    0.105844
     6  C   -0.066482
     7  O   -0.387264
     8  O   -0.455602
     9  O   -0.625392
    10  O   -0.633792
    11  O   -0.583593
    12  H    0.178301
    13  H    0.165594
    14  H    0.181734
    15  H    0.174321
    16  H    0.175879
    17  H    0.179014
    18  H    0.177049
    19  H    0.417396
    20  H    0.410102
    21  H    0.398960
 Sum of Mulliken atomic charges =   0.00000

 Dipole moment (field-independent basis, Debye):
    X=             -2.9803    Y=             -5.6880    Z=             -0.1822  Tot=              6.4240
 Quadrupole moment (field-independent basis, Debye-Ang):
   XX=            -61.4805   YY=            -71.2872   ZZ=            -65.2429
   XY=              5.6447   XZ=             -2.4365   YZ=             -1.3791

 Normal termination of Gaussian 09 at Mon Apr 15 18:53:35 2019.
