 Gaussian 09, Revision C.01,
 Gaussian 09:  EM64L-G09RevC.01 23-Sep-2011

 -----------------------------------------------------------
 # B3LYP/6-31+G** test scrf=(pcm,solvent=water,smd,dovacuum)
 -----------------------------------------------------------

 99/5=1,9=1/99;
 -------
 comment
 -------
 Charge =  0 Multiplicity = 1

                         Standard orientation:
 ---------------------------------------------------------------------
 Center     Atomic      Atomic             Coordinates (Angstroms)
 Number     Number       Type             X           Y           Z
 ---------------------------------------------------------------------
      1          6           0        0.847060   -1.596895   -0.907433
      2          6           0        0.048307   -1.548290    0.404063
      3          6           0        1.503516    0.126996    0.476722
      4          6           0       -0.840213    0.757175   -0.174110
      5          6           0        0.492292    1.282790    0.387271
      6          6           0       -1.192198   -0.638097    0.375465
      7          8           0        1.000276   -0.916793    1.282354
      8          8           0        1.693695   -0.431472   -0.829930
      9          8           0       -2.308300   -1.192036   -0.317230
     10          8           0       -1.870959    1.691982    0.115661
     11          8           0        1.022480    2.348508   -0.390355
     12          1           0        0.228476   -1.542706   -1.809333
     13          1           0        1.471775   -2.494314   -0.960997
     14          1           0       -0.195294   -2.534173    0.803133
     15          1           0        2.466605    0.460680    0.870493
     16          1           0       -0.718875    0.667183   -1.267498
     17          1           0        0.325686    1.687963    1.390504
     18          1           0       -1.529003   -0.525649    1.410851
     19          1           0       -2.083058   -1.263407   -1.260546
     20          1           0       -2.698808    1.281490   -0.188327
     21          1           0        1.282372    1.959349   -1.244135
 ---------------------------------------------------------------------

 SCF Done:  E(RB3LYP) =  -610.811767561     A.U. after   12 cycles

 The electronic state is 1-A.
 Alpha  occ. eigenvalues --  -19.18725 -19.17729 -19.17447 -19.17210 -19.16923
 Alpha  occ. eigenvalues --  -10.29517 -10.25204 -10.24753 -10.24692 -10.24575
 Alpha  occ. eigenvalues --  -10.24127  -1.11348  -1.05150  -1.04093  -1.02605
 Alpha  occ. eigenvalues --   -1.01350  -0.79311  -0.78158  -0.68423  -0.65555
 Alpha  occ. eigenvalues --   -0.62301  -0.60093  -0.55639  -0.52468  -0.52044
 Alpha  occ. eigenvalues --   -0.50992  -0.49506  -0.46294  -0.45518  -0.44011
 Alpha  occ. eigenvalues --   -0.42357  -0.41617  -0.41276  -0.38270  -0.37761
 Alpha  occ. eigenvalues --   -0.36514  -0.35923  -0.33998  -0.33230  -0.30282
 Alpha  occ. eigenvalues --   -0.29191  -0.27663  -0.26518
 Alpha virt. eigenvalues --    0.00828   0.01425   0.02079   0.02627   0.04249
 Alpha virt. eigenvalues --    0.04684   0.05239   0.05487   0.05811   0.08277
 Alpha virt. eigenvalues --    0.09058   0.09736   0.10278   0.10762   0.11215

 Mulliken atomic charges:
              1
     1  C   -0.107855
     2  C    0.254974
     3  C   -0.013951
     4  C    0.103640
     5  C    0.085294
     6  C   -0.116926
     7  O   -0.389774
     8  O   -0.455388
     9  O   -0.592756
    10  O   -0.633316
    11  O   -0.584243
    12  H    0.177451
    13  H    0.166975
    14  H    0.182160
    15  H    0.174646
    16  H    0.175315
    17  H    0.179186
    18  H    0.179590
    19  H    0.403908
    20  H    0.411637
    21  H    0.399432
 Sum of Mulliken atomic charges =   0.00000

 Dipole moment (field-independent basis, Debye):
    X=             -0.6903    Y=             -4.5618    Z=             -3.2240  Tot=              5.6286
 Quadrupole moment (field-independent basis, Debye-Ang):
   XX=            -70.3139   YY=            -74.9115   ZZ=            -60.7142
   XY=              0.3513   XZ=              4.0762   YZ=              2.8845

 Normal termination of Gaussian 09 at Mon Apr 15 18:59:36 2019.
