 Gaussian 09, Revision C.01,
 Gaussian 09:  EM64L-G09RevC.01 23-Sep-2011

 ------------------------------------------------
 # mpw1pw91/6-31+g** nmr scrf=(pcm,solvent=water)
 ------------------------------------------------

 99/9=1/99;
 -------
 comment
 -------
 Charge =  0 Multiplicity = 1

                         Standard orientation:
 ---------------------------------------------------------------------
 Center     Atomic      Atomic             Coordinates (Angstroms)
 Number     Number       Type             X           Y           Z
 ---------------------------------------------------------------------
      1          6           0       -1.793106    0.276380   -0.921942
      2          6           0       -1.318355    0.822037    0.430425
      3          6           0       -0.774897   -1.331647    0.381225
      4          6           0        1.060523    0.263645   -0.177895
      5          6           0        0.749441   -1.130803    0.387691
      6          6           0        0.131416    1.328586    0.418769
      7          8           0       -1.353437   -0.366503    1.242060
      8          8           0       -1.327423   -1.089782   -0.912391
      9          8           0        0.197567    2.539521   -0.322192
     10          8           0        2.404290    0.683438    0.086425
     11          8           0        1.348588   -2.168275   -0.381381
     12          1           0       -1.363081    0.813341   -1.772234
     13          1           0       -2.885554    0.284619   -1.000064
     14          1           0       -1.992166    1.561730    0.865928
     15          1           0       -1.056656   -2.333862    0.714068
     16          1           0        0.893189    0.225305   -1.260746
     17          1           0        1.082764   -1.182641    1.433659
     18          1           0        0.428481    1.499667    1.464839
     19          1           0        1.144928    2.739100   -0.417336
     20          1           0        2.962709    0.400775   -0.653773
     21          1           0        2.298567   -2.164414   -0.184146
 ---------------------------------------------------------------------

 SCF Done:  E(RmPW1PW91) =  -610.650609647     A.U. after   12 cycles

      1  C    Isotropic =   129.6856   Anisotropy =    67.7187

      2  C    Isotropic =   118.7096   Anisotropy =    63.2752

      3  C    Isotropic =    92.0558   Anisotropy =    28.7095

      4  C    Isotropic =   117.1790   Anisotropy =    17.5460

      5  C    Isotropic =   118.4299   Anisotropy =    21.0710

      6  C    Isotropic =   123.5891   Anisotropy =    34.8978

      7  O    Isotropic =   230.8978   Anisotropy =    66.9231

      8  O    Isotropic =   265.8217   Anisotropy =   100.9158

      9  O    Isotropic =   303.7241   Anisotropy =    33.7513

     10  O    Isotropic =   313.7513   Anisotropy =    39.6851

     11  O    Isotropic =   305.0744   Anisotropy =    30.1828

     12  H    Isotropic =    27.3693   Anisotropy =     5.9884

     13  H    Isotropic =    27.6873   Anisotropy =    11.5588

     14  H    Isotropic =    27.0122   Anisotropy =     7.6616

     15  H    Isotropic =    26.1316   Anisotropy =     7.4495

     16  H    Isotropic =    27.9434   Anisotropy =     6.3339

     17  H    Isotropic =    28.0521   Anisotropy =     3.1918

     18  H    Isotropic =    27.7608   Anisotropy =     4.0661

     19  H    Isotropic =    29.0100   Anisotropy =    17.7443

     20  H    Isotropic =    29.2396   Anisotropy =    20.3426

     21  H    Isotropic =    29.4222   Anisotropy =    19.3093

 The electronic state is 1-A.
 Alpha  occ. eigenvalues --  -19.27995 -19.26996 -19.26891 -19.26624 -19.26452
 Alpha  occ. eigenvalues --  -10.36078 -10.31982 -10.31455 -10.31343 -10.31224
 Alpha  occ. eigenvalues --  -10.30633  -1.14412  -1.08505  -1.07151  -1.05785
 Alpha  occ. eigenvalues --   -1.04154  -0.82501  -0.81486  -0.70554  -0.68546
 Alpha  occ. eigenvalues --   -0.64237  -0.60890  -0.57828  -0.56434  -0.54515
 Alpha  occ. eigenvalues --   -0.52758  -0.50428  -0.48799  -0.47717  -0.46399
 Alpha  occ. eigenvalues --   -0.44726  -0.44103  -0.42389  -0.40006  -0.39284
 Alpha  occ. eigenvalues --   -0.37480  -0.36539  -0.35918  -0.33953  -0.31877
 Alpha  occ. eigenvalues --   -0.30754  -0.29233  -0.28034
 Alpha virt. eigenvalues --    0.00151   0.01275   0.01908   0.02509   0.03953
 Alpha virt. eigenvalues --    0.04389   0.05015   0.05512   0.06083   0.08029
 Alpha virt. eigenvalues --    0.08848   0.09809   0.09997   0.10468   0.11279

 Mulliken atomic charges:
              1
     1  C   -0.134423
     2  C    0.198535
     3  C   -0.105454
     4  C   -0.153795
     5  C    0.169713
     6  C   -0.097794
     7  O   -0.319239
     8  O   -0.367535
     9  O   -0.538971
    10  O   -0.592688
    11  O   -0.553503
    12  H    0.186939
    13  H    0.177653
    14  H    0.196832
    15  H    0.185761
    16  H    0.202174
    17  H    0.187255
    18  H    0.181226
    19  H    0.386009
    20  H    0.398468
    21  H    0.392837
 Sum of Mulliken atomic charges =   0.00000

 Dipole moment (field-independent basis, Debye):
    X=              2.8953    Y=              1.0634    Z=             -0.1279  Tot=              3.0871
 Quadrupole moment (field-independent basis, Debye-Ang):
   XX=            -54.5020   YY=            -70.9602   ZZ=            -66.8226
   XY=             -3.8101   XZ=             -3.0447   YZ=             -4.6742

 Normal termination of Gaussian 09 at Fri Apr 12 12:18:38 2019.
