 Gaussian 09, Revision C.01,
 Gaussian 09:  EM64L-G09RevC.01 23-Sep-2011

 ------------------------------------------------
 # mpw1pw91/6-31+g** nmr scrf=(pcm,solvent=water)
 ------------------------------------------------

 99/9=1/99;
 -------
 comment
 -------
 Charge =  0 Multiplicity = 1

                         Standard orientation:
 ---------------------------------------------------------------------
 Center     Atomic      Atomic             Coordinates (Angstroms)
 Number     Number       Type             X           Y           Z
 ---------------------------------------------------------------------
      1          6           0        0.902035   -1.611240   -0.885859
      2          6           0        0.138480   -1.542143    0.442635
      3          6           0        1.510789    0.202366    0.398243
      4          6           0       -0.864510    0.708496   -0.190225
      5          6           0        0.431140    1.304238    0.362851
      6          6           0       -1.141201   -0.687568    0.400784
      7          8           0        1.087279   -0.835281    1.265067
      8          8           0        1.675017   -0.396870   -0.887849
      9          8           0       -2.235602   -1.312148   -0.266262
     10          8           0       -1.948185    1.589277    0.079443
     11          8           0        0.809955    2.392030   -0.472113
     12          1           0        0.257433   -1.636906   -1.771200
     13          1           0        1.574371   -2.475615   -0.914996
     14          1           0       -0.054416   -2.518436    0.890280
     15          1           0        2.475652    0.585370    0.743370
     16          1           0       -0.728370    0.606583   -1.279309
     17          1           0        0.259180    1.640512    1.395056
     18          1           0       -1.476808   -0.559478    1.434792
     19          1           0       -2.009160   -1.409094   -1.206968
     20          1           0       -2.749579    1.118388   -0.207381
     21          1           0        1.483591    2.907718   -0.000506
 ---------------------------------------------------------------------

 SCF Done:  E(RmPW1PW91) =  -610.648716184     A.U. after   12 cycles

      1  C    Isotropic =   131.0554   Anisotropy =    68.2950

      2  C    Isotropic =   118.7606   Anisotropy =    61.3411

      3  C    Isotropic =    91.6651   Anisotropy =    26.0924

      4  C    Isotropic =   119.4572   Anisotropy =    22.0014

      5  C    Isotropic =   119.0548   Anisotropy =    24.5496

      6  C    Isotropic =   120.4047   Anisotropy =    31.0851

      7  O    Isotropic =   230.8138   Anisotropy =    59.4500

      8  O    Isotropic =   266.6274   Anisotropy =    99.2355

      9  O    Isotropic =   300.5366   Anisotropy =    66.6865

     10  O    Isotropic =   302.7416   Anisotropy =    45.8318

     11  O    Isotropic =   300.1199   Anisotropy =    64.0082

     12  H    Isotropic =    27.6490   Anisotropy =     6.3463

     13  H    Isotropic =    27.7057   Anisotropy =    11.6931

     14  H    Isotropic =    27.1300   Anisotropy =     7.6214

     15  H    Isotropic =    26.3147   Anisotropy =     7.4679

     16  H    Isotropic =    28.0203   Anisotropy =     5.2059

     17  H    Isotropic =    27.9132   Anisotropy =     3.3847

     18  H    Isotropic =    27.9367   Anisotropy =     3.4969

     19  H    Isotropic =    30.6868   Anisotropy =    16.4995

     20  H    Isotropic =    29.0564   Anisotropy =    17.5309

     21  H    Isotropic =    29.8187   Anisotropy =    20.7719

 The electronic state is 1-A.
 Alpha  occ. eigenvalues --  -19.28160 -19.27387 -19.27051 -19.26557 -19.26230
 Alpha  occ. eigenvalues --  -10.36078 -10.32135 -10.31774 -10.31565 -10.31519
 Alpha  occ. eigenvalues --  -10.31101  -1.14565  -1.08615  -1.07326  -1.05767
 Alpha  occ. eigenvalues --   -1.04340  -0.82443  -0.81549  -0.71276  -0.68088
 Alpha  occ. eigenvalues --   -0.65009  -0.61705  -0.57971  -0.56037  -0.54513
 Alpha  occ. eigenvalues --   -0.52615  -0.50436  -0.49754  -0.47495  -0.46372
 Alpha  occ. eigenvalues --   -0.44281  -0.43665  -0.42796  -0.40722  -0.39047
 Alpha  occ. eigenvalues --   -0.38036  -0.37206  -0.35967  -0.33299  -0.32632
 Alpha  occ. eigenvalues --   -0.31123  -0.29344  -0.27675
 Alpha virt. eigenvalues --    0.00631   0.01243   0.01523   0.02516   0.03741
 Alpha virt. eigenvalues --    0.04752   0.04900   0.05501   0.05628   0.08130
 Alpha virt. eigenvalues --    0.08606   0.09654   0.09764   0.10446   0.11117

 Mulliken atomic charges:
              1
     1  C   -0.123928
     2  C    0.202054
     3  C   -0.154809
     4  C   -0.000562
     5  C    0.125388
     6  C   -0.218767
     7  O   -0.317249
     8  O   -0.352409
     9  O   -0.527468
    10  O   -0.552742
    11  O   -0.548075
    12  H    0.171460
    13  H    0.181896
    14  H    0.201114
    15  H    0.186491
    16  H    0.185430
    17  H    0.187327
    18  H    0.200290
    19  H    0.376480
    20  H    0.387394
    21  H    0.390685
 Sum of Mulliken atomic charges =   0.00000

 Dipole moment (field-independent basis, Debye):
    X=              0.6360    Y=             -2.4280    Z=             -0.1402  Tot=              2.5138
 Quadrupole moment (field-independent basis, Debye-Ang):
   XX=            -66.3527   YY=            -63.8576   ZZ=            -64.8459
   XY=              5.8587   XZ=              6.5982   YZ=              8.1387

 Normal termination of Gaussian 09 at Fri Apr 12 12:26:47 2019.
