 Gaussian 09, Revision C.01,
 Gaussian 09:  EM64L-G09RevC.01 23-Sep-2011

 -----------------------------------------------------------
 # B3LYP/6-31+G** test scrf=(pcm,solvent=water,smd,dovacuum)
 -----------------------------------------------------------

 99/5=1,9=1/99;
 -------
 comment
 -------
 Charge =  0 Multiplicity = 1

                         Standard orientation:
 ---------------------------------------------------------------------
 Center     Atomic      Atomic             Coordinates (Angstroms)
 Number     Number       Type             X           Y           Z
 ---------------------------------------------------------------------
      1          6           0       -1.838166   -0.121089    1.084160
      2          6           0       -1.160111   -1.128649    0.145167
      3          6           0       -0.896003    0.888262   -0.763352
      4          6           0        1.051906   -0.017863    0.546247
      5          6           0        0.623658    0.971144   -0.554816
      6          6           0        0.336416   -1.379140    0.403559
      7          8           0       -1.250808   -0.435425   -1.124145
      8          8           0       -1.566858    1.157509    0.470117
      9          8           0        0.862406   -2.176686   -0.650039
     10          8           0        2.457355   -0.214667    0.556945
     11          8           0        1.045532    2.294962   -0.242819
     12          1           0       -1.439910   -0.137329    2.103074
     13          1           0       -2.920950   -0.276181    1.117831
     14          1           0       -1.699050   -2.072107    0.047986
     15          1           0       -1.251701    1.583928   -1.527202
     16          1           0        0.732712    0.414526    1.507894
     17          1           0        1.123280    0.711747   -1.494040
     18          1           0        0.479249   -1.957844    1.322209
     19          1           0        0.517203   -1.797553   -1.477465
     20          1           0        2.849430    0.672506    0.624531
     21          1           0        0.522515    2.576775    0.528914
 ---------------------------------------------------------------------

 SCF Done:  E(RB3LYP) =  -610.810761261     A.U. after   12 cycles

 The electronic state is 1-A.
 Alpha  occ. eigenvalues --  -19.18846 -19.17828 -19.17364 -19.16923 -19.16923
 Alpha  occ. eigenvalues --  -10.29584 -10.25366 -10.24929 -10.24487 -10.24434
 Alpha  occ. eigenvalues --  -10.24320  -1.11394  -1.05113  -1.04223  -1.02567
 Alpha  occ. eigenvalues --   -1.01155  -0.79631  -0.78007  -0.68287  -0.65458
 Alpha  occ. eigenvalues --   -0.62894  -0.59219  -0.55711  -0.52800  -0.52103
 Alpha  occ. eigenvalues --   -0.51084  -0.48964  -0.46557  -0.45342  -0.44383
 Alpha  occ. eigenvalues --   -0.42834  -0.41821  -0.40506  -0.39006  -0.37282
 Alpha  occ. eigenvalues --   -0.37057  -0.35679  -0.33807  -0.33168  -0.30275
 Alpha  occ. eigenvalues --   -0.29022  -0.28250  -0.26279
 Alpha virt. eigenvalues --    0.00793   0.01451   0.02219   0.02402   0.04182
 Alpha virt. eigenvalues --    0.04966   0.05258   0.05701   0.05999   0.07938
 Alpha virt. eigenvalues --    0.08680   0.09773   0.10339   0.10648   0.11403

 Mulliken atomic charges:
              1
     1  C   -0.155084
     2  C    0.302193
     3  C    0.018856
     4  C    0.088096
     5  C    0.053048
     6  C   -0.056444
     7  O   -0.427048
     8  O   -0.470113
     9  O   -0.589710
    10  O   -0.623587
    11  O   -0.594020
    12  H    0.179843
    13  H    0.170372
    14  H    0.181720
    15  H    0.176300
    16  H    0.176231
    17  H    0.183478
    18  H    0.173366
    19  H    0.401454
    20  H    0.410443
    21  H    0.400605
 Sum of Mulliken atomic charges =   0.00000

 Dipole moment (field-independent basis, Debye):
    X=             -3.3918    Y=              1.1202    Z=              2.6050  Tot=              4.4210
 Quadrupole moment (field-independent basis, Debye-Ang):
   XX=            -72.0272   YY=            -73.3093   ZZ=            -59.1537
   XY=              9.3501   XZ=             -1.5849   YZ=             -0.4509

 Normal termination of Gaussian 09 at Mon Apr 15 18:59:11 2019.
