 Gaussian 09, Revision C.01,
 Gaussian 09:  EM64L-G09RevC.01 23-Sep-2011

 ------------------------------------------------
 # mpw1pw91/6-31+g** nmr scrf=(pcm,solvent=water)
 ------------------------------------------------

 99/9=1/99;
 -------
 comment
 -------
 Charge =  0 Multiplicity = 1

                         Standard orientation:
 ---------------------------------------------------------------------
 Center     Atomic      Atomic             Coordinates (Angstroms)
 Number     Number       Type             X           Y           Z
 ---------------------------------------------------------------------
      1          6           0       -1.916304   -0.245051    1.006662
      2          6           0       -1.191789   -1.124941   -0.023135
      3          6           0       -0.914753    0.978326   -0.669864
      4          6           0        0.998700   -0.034311    0.577306
      5          6           0        0.614497    0.999028   -0.482680
      6          6           0        0.277272   -1.377486    0.344363
      7          8           0       -1.265890   -0.288140   -1.193029
      8          8           0       -1.598542    1.095433    0.579190
      9          8           0        0.889259   -2.091149   -0.719971
     10          8           0        2.399156   -0.305729    0.569227
     11          8           0        1.122983    2.251582   -0.031642
     12          1           0       -1.570472   -0.395248    2.034200
     13          1           0       -3.000717   -0.392460    0.965898
     14          1           0       -1.703428   -2.062193   -0.247694
     15          1           0       -1.263910    1.763004   -1.347476
     16          1           0        0.702673    0.371019    1.553797
     17          1           0        1.065338    0.716411   -1.442999
     18          1           0        0.315004   -1.968090    1.273883
     19          1           0        1.842047   -1.902700   -0.635369
     20          1           0        2.848278    0.553484    0.494890
     21          1           0        1.183722    2.847403   -0.795241
 ---------------------------------------------------------------------

 SCF Done:  E(RmPW1PW91) =  -610.651747728     A.U. after   12 cycles

      1  C    Isotropic =   129.4062   Anisotropy =    62.4649

      2  C    Isotropic =   117.6970   Anisotropy =    53.4076

      3  C    Isotropic =    92.5721   Anisotropy =    25.0356

      4  C    Isotropic =   124.6213   Anisotropy =    35.9649

      5  C    Isotropic =   119.8304   Anisotropy =    26.0140

      6  C    Isotropic =   124.8980   Anisotropy =    43.5158

      7  O    Isotropic =   237.5818   Anisotropy =    51.2672

      8  O    Isotropic =   273.4972   Anisotropy =   102.1675

      9  O    Isotropic =   309.6905   Anisotropy =    26.5546

     10  O    Isotropic =   308.3975   Anisotropy =    32.7363

     11  O    Isotropic =   305.3397   Anisotropy =    53.9255

     12  H    Isotropic =    27.7371   Anisotropy =     7.2908

     13  H    Isotropic =    27.6546   Anisotropy =    11.6187

     14  H    Isotropic =    26.9222   Anisotropy =     8.2768

     15  H    Isotropic =    26.2355   Anisotropy =     7.4164

     16  H    Isotropic =    27.7122   Anisotropy =     4.5148

     17  H    Isotropic =    27.8505   Anisotropy =     3.4013

     18  H    Isotropic =    27.5579   Anisotropy =     7.2127

     19  H    Isotropic =    28.3315   Anisotropy =    17.4568

     20  H    Isotropic =    28.9377   Anisotropy =    18.5227

     21  H    Isotropic =    29.6269   Anisotropy =    20.8830

 The electronic state is 1-A.
 Alpha  occ. eigenvalues --  -19.27721 -19.27042 -19.27021 -19.26914 -19.25765
 Alpha  occ. eigenvalues --  -10.35908 -10.31984 -10.31603 -10.31580 -10.31314
 Alpha  occ. eigenvalues --  -10.30901  -1.14359  -1.08970  -1.07203  -1.05441
 Alpha  occ. eigenvalues --   -1.03918  -0.82674  -0.81327  -0.70558  -0.68278
 Alpha  occ. eigenvalues --   -0.65269  -0.60695  -0.57147  -0.56910  -0.53113
 Alpha  occ. eigenvalues --   -0.52702  -0.50986  -0.49124  -0.48364  -0.46511
 Alpha  occ. eigenvalues --   -0.45495  -0.43109  -0.41966  -0.39808  -0.39524
 Alpha  occ. eigenvalues --   -0.37859  -0.37192  -0.35667  -0.33581  -0.31802
 Alpha  occ. eigenvalues --   -0.30797  -0.29655  -0.27613
 Alpha virt. eigenvalues --    0.00529   0.01316   0.01770   0.02719   0.03903
 Alpha virt. eigenvalues --    0.04722   0.05455   0.05576   0.05848   0.07851
 Alpha virt. eigenvalues --    0.08212   0.09824   0.09867   0.10244   0.11634

 Mulliken atomic charges:
              1
     1  C   -0.195724
     2  C    0.295219
     3  C   -0.074556
     4  C    0.010383
     5  C    0.015034
     6  C   -0.103115
     7  O   -0.326741
     8  O   -0.378951
     9  O   -0.565465
    10  O   -0.590274
    11  O   -0.559497
    12  H    0.182354
    13  H    0.180079
    14  H    0.191100
    15  H    0.184952
    16  H    0.190900
    17  H    0.191573
    18  H    0.175181
    19  H    0.389787
    20  H    0.391932
    21  H    0.395828
 Sum of Mulliken atomic charges =   0.00000

 Dipole moment (field-independent basis, Debye):
    X=              0.5133    Y=              1.3788    Z=              0.3628  Tot=              1.5154
 Quadrupole moment (field-independent basis, Debye-Ang):
   XX=            -61.6365   YY=            -65.5117   ZZ=            -64.6140
   XY=              8.0302   XZ=             -5.2577   YZ=            -12.1077

 Normal termination of Gaussian 09 at Fri Apr 12 12:29:06 2019.
