 Gaussian 09, Revision C.01,
 Gaussian 09:  EM64L-G09RevC.01 23-Sep-2011

 -----------------------------------------------------------
 # B3LYP/6-31+G** test scrf=(pcm,solvent=water,smd,dovacuum)
 -----------------------------------------------------------

 99/5=1,9=1/99;
 -------
 comment
 -------
 Charge =  0 Multiplicity = 1

                         Standard orientation:
 ---------------------------------------------------------------------
 Center     Atomic      Atomic             Coordinates (Angstroms)
 Number     Number       Type             X           Y           Z
 ---------------------------------------------------------------------
      1          6           0        1.882299    0.026731    1.056966
      2          6           0        1.273770    1.009327    0.043644
      3          6           0        0.827026   -1.030730   -0.695998
      4          6           0       -1.014257    0.121174    0.552330
      5          6           0       -0.700739   -0.919465   -0.527298
      6          6           0       -0.188072    1.401753    0.353641
      7          8           0        1.307754    0.217078   -1.158535
      8          8           0        1.474867   -1.262386    0.556889
      9          8           0       -0.750478    2.139746   -0.724338
     10          8           0       -2.399561    0.430721    0.597114
     11          8           0       -1.307852   -2.136181   -0.095133
     12          1           0        1.511468    0.162891    2.077920
     13          1           0        2.975937    0.084676    1.060916
     14          1           0        1.888920    1.896657   -0.122911
     15          1           0        1.116003   -1.816556   -1.399935
     16          1           0       -0.705663   -0.321896    1.510265
     17          1           0       -1.122224   -0.589768   -1.485434
     18          1           0       -0.215132    1.993300    1.281628
     19          1           0       -0.234969    2.956981   -0.820028
     20          1           0       -2.849311   -0.429246    0.661553
     21          1           0       -1.443032   -2.701603   -0.871654
 ---------------------------------------------------------------------

 SCF Done:  E(RB3LYP) =  -610.808999955     A.U. after   12 cycles

 The electronic state is 1-A.
 Alpha  occ. eigenvalues --  -19.18358 -19.17525 -19.17321 -19.16884 -19.16882
 Alpha  occ. eigenvalues --  -10.29316 -10.25143 -10.24982 -10.24590 -10.24410
 Alpha  occ. eigenvalues --  -10.24098  -1.11173  -1.05203  -1.03923  -1.02408
 Alpha  occ. eigenvalues --   -1.01051  -0.79568  -0.78381  -0.67915  -0.65155
 Alpha  occ. eigenvalues --   -0.62827  -0.58118  -0.54988  -0.54393  -0.52519
 Alpha  occ. eigenvalues --   -0.50023  -0.49142  -0.46710  -0.44752  -0.44088
 Alpha  occ. eigenvalues --   -0.43673  -0.42463  -0.40228  -0.38643  -0.37205
 Alpha  occ. eigenvalues --   -0.36303  -0.35382  -0.33519  -0.32284  -0.30254
 Alpha  occ. eigenvalues --   -0.29447  -0.27847  -0.26177
 Alpha virt. eigenvalues --    0.00622   0.01310   0.01952   0.02609   0.04043
 Alpha virt. eigenvalues --    0.04980   0.05158   0.05775   0.06161   0.07912
 Alpha virt. eigenvalues --    0.08428   0.09875   0.10200   0.10592   0.11610

 Mulliken atomic charges:
              1
     1  C   -0.162747
     2  C    0.278788
     3  C    0.035683
     4  C   -0.015769
     5  C    0.146603
     6  C    0.028644
     7  O   -0.400780
     8  O   -0.459147
     9  O   -0.650895
    10  O   -0.632082
    11  O   -0.630214
    12  H    0.177294
    13  H    0.167081
    14  H    0.176010
    15  H    0.170938
    16  H    0.179353
    17  H    0.179225
    18  H    0.168636
    19  H    0.417856
    20  H    0.407132
    21  H    0.418392
 Sum of Mulliken atomic charges =   0.00000

 Dipole moment (field-independent basis, Debye):
    X=              2.5405    Y=              0.8066    Z=              0.3747  Tot=              2.6917
 Quadrupole moment (field-independent basis, Debye-Ang):
   XX=            -68.8641   YY=            -57.3506   ZZ=            -63.4412
   XY=             14.4223   XZ=              4.4560   YZ=             10.0722

 Normal termination of Gaussian 09 at Mon Apr 15 18:53:34 2019.
