 Gaussian 09, Revision C.01,
 Gaussian 09:  EM64L-G09RevC.01 23-Sep-2011

 -----------------------------------------------------------
 # B3LYP/6-31+G** test scrf=(pcm,solvent=water,smd,dovacuum)
 -----------------------------------------------------------

 99/5=1,9=1/99;
 -------
 comment
 -------
 Charge =  0 Multiplicity = 1

                         Standard orientation:
 ---------------------------------------------------------------------
 Center     Atomic      Atomic             Coordinates (Angstroms)
 Number     Number       Type             X           Y           Z
 ---------------------------------------------------------------------
      1          6           0       -1.877716   -0.039025   -1.068086
      2          6           0       -1.291247    0.993550   -0.097538
      3          6           0       -0.795336   -1.020920    0.712951
      4          6           0        1.023003    0.142094   -0.566263
      5          6           0        0.728623   -0.899684    0.519821
      6          6           0        0.164738    1.410137   -0.373838
      7          8           0       -1.286467    0.243473    1.141455
      8          8           0       -1.455741   -1.302513   -0.517198
      9          8           0        0.622949    2.231635    0.694003
     10          8           0        2.398243    0.493548   -0.593986
     11          8           0        1.337786   -2.114736    0.092296
     12          1           0       -1.505091    0.064095   -2.092010
     13          1           0       -2.971849    0.001359   -1.077478
     14          1           0       -1.921580    1.872139    0.047534
     15          1           0       -1.067630   -1.781207    1.450311
     16          1           0        0.737249   -0.314295   -1.525732
     17          1           0        1.163551   -0.563092    1.471284
     18          1           0        0.224775    2.026590   -1.276860
     19          1           0        0.340218    1.792316    1.515292
     20          1           0        2.879165   -0.347424   -0.677106
     21          1           0        1.474651   -2.678646    0.869925
 ---------------------------------------------------------------------

 SCF Done:  E(RB3LYP) =  -610.810195870     A.U. after   12 cycles

 The electronic state is 1-A.
 Alpha  occ. eigenvalues --  -19.18703 -19.17672 -19.17345 -19.16903 -19.16888
 Alpha  occ. eigenvalues --  -10.29470 -10.25280 -10.24900 -10.24503 -10.24480
 Alpha  occ. eigenvalues --  -10.24226  -1.11267  -1.05165  -1.04084  -1.02498
 Alpha  occ. eigenvalues --   -1.01086  -0.79548  -0.78290  -0.68169  -0.65302
 Alpha  occ. eigenvalues --   -0.63020  -0.58199  -0.55413  -0.54472  -0.52549
 Alpha  occ. eigenvalues --   -0.49409  -0.48243  -0.47112  -0.45984  -0.44887
 Alpha  occ. eigenvalues --   -0.43006  -0.41968  -0.39842  -0.38672  -0.37207
 Alpha  occ. eigenvalues --   -0.36989  -0.35618  -0.34177  -0.31932  -0.30304
 Alpha  occ. eigenvalues --   -0.29298  -0.28218  -0.26323
 Alpha virt. eigenvalues --    0.00727   0.01388   0.02122   0.02463   0.03879
 Alpha virt. eigenvalues --    0.05003   0.05569   0.05648   0.06079   0.07956
 Alpha virt. eigenvalues --    0.08340   0.09905   0.10198   0.10628   0.11447

 Mulliken atomic charges:
              1
     1  C   -0.153089
     2  C    0.308840
     3  C    0.035086
     4  C    0.039470
     5  C    0.095280
     6  C   -0.052837
     7  O   -0.431556
     8  O   -0.454499
     9  O   -0.591991
    10  O   -0.623181
    11  O   -0.631516
    12  H    0.178684
    13  H    0.168897
    14  H    0.180958
    15  H    0.173173
    16  H    0.176816
    17  H    0.180724
    18  H    0.173274
    19  H    0.401288
    20  H    0.408212
    21  H    0.417969
 Sum of Mulliken atomic charges =   0.00000

 Dipole moment (field-independent basis, Debye):
    X=             -1.9440    Y=             -2.1296    Z=              0.8581  Tot=              3.0084
 Quadrupole moment (field-independent basis, Debye-Ang):
   XX=            -67.3512   YY=            -71.7504   ZZ=            -58.7193
   XY=            -13.4915   XZ=              5.6442   YZ=            -10.0162

 Normal termination of Gaussian 09 at Mon Apr 15 19:08:06 2019.
