 Gaussian 09, Revision C.01,
 Gaussian 09:  EM64L-G09RevC.01 23-Sep-2011

 ------------------------------------------------
 # mpw1pw91/6-31+g** nmr scrf=(pcm,solvent=water)
 ------------------------------------------------

 99/9=1/99;
 -------
 comment
 -------
 Charge =  0 Multiplicity = 1

                         Standard orientation:
 ---------------------------------------------------------------------
 Center     Atomic      Atomic             Coordinates (Angstroms)
 Number     Number       Type             X           Y           Z
 ---------------------------------------------------------------------
      1          6           0        1.381351   -1.598849   -0.444707
      2          6           0        0.000608   -1.415884    0.191992
      3          6           0        1.221586    0.318964    0.838562
      4          6           0       -0.995919    0.886807   -0.282076
      5          6           0        0.397363    1.427299    0.122656
      6          6           0       -0.987576   -0.608915   -0.695918
      7          8           0        0.365205   -0.661069    1.371433
      8          8           0        2.038290   -0.349484   -0.142431
      9          8           0       -2.304773   -1.129602   -0.636033
     10          8           0       -1.905886    0.986555    0.827549
     11          8           0        1.113558    1.944040   -0.987509
     12          1           0        1.359772   -1.741521   -1.527794
     13          1           0        1.933368   -2.420468    0.023612
     14          1           0       -0.462125   -2.348216    0.517796
     15          1           0        1.864554    0.707650    1.630683
     16          1           0       -1.362100    1.486960   -1.121436
     17          1           0        0.224480    2.252676    0.821724
     18          1           0       -0.667664   -0.686088   -1.740828
     19          1           0       -2.715990   -0.644691    0.107047
     20          1           0       -2.419003    1.802200    0.722968
     21          1           0        1.689073    1.211440   -1.280906
 ---------------------------------------------------------------------

 SCF Done:  E(RmPW1PW91) =  -610.644547824     A.U. after   12 cycles

      1  C    Isotropic =   127.7740   Anisotropy =    46.9189

      2  C    Isotropic =   113.3661   Anisotropy =    37.7586

      3  C    Isotropic =    96.3849   Anisotropy =    38.5411

      4  C    Isotropic =   123.5897   Anisotropy =    50.8102

      5  C    Isotropic =   123.2711   Anisotropy =    43.6538

      6  C    Isotropic =   123.6065   Anisotropy =    43.4518

      7  O    Isotropic =   243.0715   Anisotropy =    70.0061

      8  O    Isotropic =   275.6981   Anisotropy =   103.3557

      9  O    Isotropic =   293.9540   Anisotropy =    50.8469

     10  O    Isotropic =   297.8875   Anisotropy =    28.7767

     11  O    Isotropic =   301.8772   Anisotropy =    45.2415

     12  H    Isotropic =    27.7785   Anisotropy =     7.9716

     13  H    Isotropic =    27.8447   Anisotropy =    11.0068

     14  H    Isotropic =    27.1530   Anisotropy =     6.4675

     15  H    Isotropic =    25.9789   Anisotropy =     8.8785

     16  H    Isotropic =    27.6589   Anisotropy =     6.4257

     17  H    Isotropic =    27.6832   Anisotropy =     5.9340

     18  H    Isotropic =    27.8653   Anisotropy =     4.9819

     19  H    Isotropic =    27.2115   Anisotropy =    15.4801

     20  H    Isotropic =    29.3050   Anisotropy =    21.4727

     21  H    Isotropic =    28.5429   Anisotropy =    16.3895

 The electronic state is 1-A.
 Alpha  occ. eigenvalues --  -19.27920 -19.27856 -19.27153 -19.25908 -19.25560
 Alpha  occ. eigenvalues --  -10.36268 -10.31678 -10.31658 -10.31415 -10.31197
 Alpha  occ. eigenvalues --  -10.30924  -1.14724  -1.08653  -1.06888  -1.05227
 Alpha  occ. eigenvalues --   -1.04193  -0.82186  -0.80400  -0.70529  -0.68678
 Alpha  occ. eigenvalues --   -0.64801  -0.60610  -0.57979  -0.56738  -0.53695
 Alpha  occ. eigenvalues --   -0.52355  -0.51091  -0.48310  -0.47482  -0.46679
 Alpha  occ. eigenvalues --   -0.44624  -0.42816  -0.41984  -0.40556  -0.38521
 Alpha  occ. eigenvalues --   -0.37694  -0.36710  -0.35947  -0.33991  -0.33301
 Alpha  occ. eigenvalues --   -0.30914  -0.28734  -0.27643
 Alpha virt. eigenvalues --    0.00528   0.01148   0.02335   0.02579   0.04310
 Alpha virt. eigenvalues --    0.04452   0.04652   0.04949   0.05833   0.08164
 Alpha virt. eigenvalues --    0.08762   0.09405   0.10013   0.10633   0.11150

 Mulliken atomic charges:
              1
     1  C   -0.261816
     2  C    0.357907
     3  C   -0.006065
     4  C    0.015720
     5  C    0.047954
     6  C   -0.190731
     7  O   -0.331206
     8  O   -0.450691
     9  O   -0.553254
    10  O   -0.623772
    11  O   -0.508449
    12  H    0.181482
    13  H    0.182459
    14  H    0.196132
    15  H    0.189849
    16  H    0.193154
    17  H    0.180910
    18  H    0.183165
    19  H    0.390006
    20  H    0.411781
    21  H    0.395465
 Sum of Mulliken atomic charges =   0.00000

 Dipole moment (field-independent basis, Debye):
    X=             -0.2406    Y=              0.2392    Z=             -0.4552  Tot=              0.5677
 Quadrupole moment (field-independent basis, Debye-Ang):
   XX=            -66.6763   YY=            -62.1381   ZZ=            -67.3374
   XY=            -11.4148   XZ=             -1.5138   YZ=              4.8296

 Normal termination of Gaussian 09 at Fri Apr 12 12:43:06 2019.
