 Gaussian 09, Revision C.01,
 Gaussian 09:  EM64L-G09RevC.01 23-Sep-2011

 ------------------------------------------------
 # mpw1pw91/6-31+g** nmr scrf=(pcm,solvent=water)
 ------------------------------------------------

 99/9=1/99;
 -------
 comment
 -------
 Charge =  0 Multiplicity = 1

                         Standard orientation:
 ---------------------------------------------------------------------
 Center     Atomic      Atomic             Coordinates (Angstroms)
 Number     Number       Type             X           Y           Z
 ---------------------------------------------------------------------
      1          6           0       -1.838166   -0.121089    1.084160
      2          6           0       -1.160111   -1.128649    0.145167
      3          6           0       -0.896003    0.888262   -0.763352
      4          6           0        1.051906   -0.017863    0.546247
      5          6           0        0.623658    0.971144   -0.554816
      6          6           0        0.336416   -1.379140    0.403559
      7          8           0       -1.250808   -0.435425   -1.124145
      8          8           0       -1.566858    1.157509    0.470117
      9          8           0        0.862406   -2.176686   -0.650039
     10          8           0        2.457355   -0.214667    0.556945
     11          8           0        1.045532    2.294962   -0.242819
     12          1           0       -1.439910   -0.137329    2.103074
     13          1           0       -2.920950   -0.276181    1.117831
     14          1           0       -1.699050   -2.072107    0.047986
     15          1           0       -1.251701    1.583928   -1.527202
     16          1           0        0.732712    0.414526    1.507894
     17          1           0        1.123280    0.711747   -1.494040
     18          1           0        0.479249   -1.957844    1.322209
     19          1           0        0.517203   -1.797553   -1.477465
     20          1           0        2.849430    0.672506    0.624531
     21          1           0        0.522515    2.576775    0.528914
 ---------------------------------------------------------------------

 SCF Done:  E(RmPW1PW91) =  -610.650691176     A.U. after   12 cycles

      1  C    Isotropic =   129.4475   Anisotropy =    62.7790

      2  C    Isotropic =   115.4257   Anisotropy =    47.7574

      3  C    Isotropic =    93.3339   Anisotropy =    26.1430

      4  C    Isotropic =   122.2198   Anisotropy =    29.2796

      5  C    Isotropic =   119.6027   Anisotropy =    23.7613

      6  C    Isotropic =   123.9451   Anisotropy =    39.6904

      7  O    Isotropic =   240.3453   Anisotropy =    66.9835

      8  O    Isotropic =   273.9862   Anisotropy =    96.0844

      9  O    Isotropic =   303.6847   Anisotropy =    30.6078

     10  O    Isotropic =   306.9586   Anisotropy =    39.7917

     11  O    Isotropic =   301.5187   Anisotropy =    54.5820

     12  H    Isotropic =    27.7445   Anisotropy =     7.3645

     13  H    Isotropic =    27.6051   Anisotropy =    11.4241

     14  H    Isotropic =    26.9902   Anisotropy =     8.5305

     15  H    Isotropic =    26.1875   Anisotropy =     7.6416

     16  H    Isotropic =    28.0560   Anisotropy =     5.1299

     17  H    Isotropic =    28.1658   Anisotropy =     2.8485

     18  H    Isotropic =    27.6546   Anisotropy =     6.7174

     19  H    Isotropic =    29.5248   Anisotropy =    14.5178

     20  H    Isotropic =    29.2147   Anisotropy =    18.2519

     21  H    Isotropic =    30.1683   Anisotropy =    15.5809

 The electronic state is 1-A.
 Alpha  occ. eigenvalues --  -19.28661 -19.27587 -19.27006 -19.26232 -19.26212
 Alpha  occ. eigenvalues --  -10.36379 -10.32390 -10.31815 -10.31445 -10.31360
 Alpha  occ. eigenvalues --  -10.31335  -1.14936  -1.08365  -1.07469  -1.05702
 Alpha  occ. eigenvalues --   -1.04387  -0.82847  -0.81129  -0.71178  -0.68236
 Alpha  occ. eigenvalues --   -0.65595  -0.61728  -0.58101  -0.55137  -0.54379
 Alpha  occ. eigenvalues --   -0.53269  -0.51198  -0.48690  -0.47583  -0.46454
 Alpha  occ. eigenvalues --   -0.44891  -0.43756  -0.42502  -0.40562  -0.39081
 Alpha  occ. eigenvalues --   -0.38727  -0.37517  -0.35611  -0.34788  -0.31841
 Alpha  occ. eigenvalues --   -0.30726  -0.29761  -0.27862
 Alpha virt. eigenvalues --    0.00698   0.01309   0.02050   0.02230   0.03993
 Alpha virt. eigenvalues --    0.04766   0.05088   0.05489   0.05770   0.07778
 Alpha virt. eigenvalues --    0.08514   0.09582   0.10082   0.10470   0.11179

 Mulliken atomic charges:
              1
     1  C   -0.198680
     2  C    0.273041
     3  C   -0.069166
     4  C    0.002365
     5  C   -0.022661
     6  C   -0.108253
     7  O   -0.366168
     8  O   -0.409215
     9  O   -0.514755
    10  O   -0.534155
    11  O   -0.528140
    12  H    0.186641
    13  H    0.185649
    14  H    0.200487
    15  H    0.194524
    16  H    0.177850
    17  H    0.198260
    18  H    0.186877
    19  H    0.379291
    20  H    0.386224
    21  H    0.379984
 Sum of Mulliken atomic charges =   0.00000

 Dipole moment (field-independent basis, Debye):
    X=             -3.1433    Y=              0.9905    Z=              2.3188  Tot=              4.0297
 Quadrupole moment (field-independent basis, Debye-Ang):
   XX=            -70.2910   YY=            -71.6887   ZZ=            -59.0363
   XY=              8.4514   XZ=             -1.5314   YZ=             -0.5092

 Normal termination of Gaussian 09 at Fri Apr 12 12:37:20 2019.
