 Gaussian 09, Revision C.01,
 Gaussian 09:  EM64L-G09RevC.01 23-Sep-2011

 ------------------------------------------------
 # mpw1pw91/6-31+g** nmr scrf=(pcm,solvent=water)
 ------------------------------------------------

 99/9=1/99;
 -------
 comment
 -------
 Charge =  0 Multiplicity = 1

                         Standard orientation:
 ---------------------------------------------------------------------
 Center     Atomic      Atomic             Coordinates (Angstroms)
 Number     Number       Type             X           Y           Z
 ---------------------------------------------------------------------
      1          6           0       -1.897256   -0.336346    1.016091
      2          6           0       -1.134785   -1.182690   -0.014004
      3          6           0       -0.967932    0.930115   -0.671510
      4          6           0        1.009735    0.028838    0.554361
      5          6           0        0.553367    1.043395   -0.496798
      6          6           0        0.346192   -1.356500    0.348079
      7          8           0       -1.253517   -0.353881   -1.186159
      8          8           0       -1.648761    1.016539    0.582575
      9          8           0        0.992506   -2.053800   -0.704802
     10          8           0        2.435376   -0.080645    0.442028
     11          8           0        0.885878    2.372192   -0.123075
     12          1           0       -1.539288   -0.465409    2.042456
     13          1           0       -2.973208   -0.537828    0.981858
     14          1           0       -1.601362   -2.144370   -0.233878
     15          1           0       -1.359178    1.694409   -1.348176
     16          1           0        0.739034    0.426142    1.538520
     17          1           0        1.009141    0.785054   -1.463867
     18          1           0        0.414783   -1.930224    1.287672
     19          1           0        1.929777   -1.790162   -0.637554
     20          1           0        2.787838   -0.380947    1.295927
     21          1           0        1.844666    2.379221    0.035187
 ---------------------------------------------------------------------

 SCF Done:  E(RmPW1PW91) =  -610.651728193     A.U. after   12 cycles

      1  C    Isotropic =   129.4787   Anisotropy =    62.5763

      2  C    Isotropic =   117.3946   Anisotropy =    54.7047

      3  C    Isotropic =    93.4624   Anisotropy =    28.5198

      4  C    Isotropic =   121.7116   Anisotropy =    33.8807

      5  C    Isotropic =   121.4658   Anisotropy =    28.8227

      6  C    Isotropic =   123.9110   Anisotropy =    38.6850

      7  O    Isotropic =   238.3620   Anisotropy =    57.1374

      8  O    Isotropic =   272.4566   Anisotropy =   105.1999

      9  O    Isotropic =   307.9916   Anisotropy =    27.8628

     10  O    Isotropic =   311.1950   Anisotropy =    85.1937

     11  O    Isotropic =   303.1381   Anisotropy =    36.4999

     12  H    Isotropic =    27.7456   Anisotropy =     7.3013

     13  H    Isotropic =    27.6562   Anisotropy =    11.5878

     14  H    Isotropic =    26.8755   Anisotropy =     8.2299

     15  H    Isotropic =    26.0767   Anisotropy =     7.5230

     16  H    Isotropic =    27.7091   Anisotropy =     4.5106

     17  H    Isotropic =    27.8399   Anisotropy =     2.9137

     18  H    Isotropic =    27.7912   Anisotropy =     7.1264

     19  H    Isotropic =    28.2907   Anisotropy =    17.4908

     20  H    Isotropic =    29.8914   Anisotropy =    22.0373

     21  H    Isotropic =    29.2708   Anisotropy =    18.1438

 The electronic state is 1-A.
 Alpha  occ. eigenvalues --  -19.27756 -19.27705 -19.26890 -19.26373 -19.25758
 Alpha  occ. eigenvalues --  -10.35978 -10.31960 -10.31780 -10.31490 -10.31126
 Alpha  occ. eigenvalues --  -10.30887  -1.14375  -1.09095  -1.06980  -1.05542
 Alpha  occ. eigenvalues --   -1.03914  -0.82638  -0.81326  -0.70346  -0.68756
 Alpha  occ. eigenvalues --   -0.64725  -0.60487  -0.57649  -0.56537  -0.53680
 Alpha  occ. eigenvalues --   -0.52167  -0.50720  -0.50200  -0.47577  -0.46225
 Alpha  occ. eigenvalues --   -0.45369  -0.43176  -0.42757  -0.40509  -0.38259
 Alpha  occ. eigenvalues --   -0.37720  -0.37035  -0.36631  -0.33036  -0.31974
 Alpha  occ. eigenvalues --   -0.30485  -0.28830  -0.28539
 Alpha virt. eigenvalues --    0.00268   0.01323   0.01984   0.02623   0.03931
 Alpha virt. eigenvalues --    0.05010   0.05413   0.05647   0.05664   0.07783
 Alpha virt. eigenvalues --    0.08474   0.09200   0.10055   0.10277   0.11533

 Mulliken atomic charges:
              1
     1  C   -0.205085
     2  C    0.319457
     3  C   -0.089891
     4  C   -0.072302
     5  C    0.079513
     6  C   -0.091993
     7  O   -0.328278
     8  O   -0.379861
     9  O   -0.556759
    10  O   -0.616979
    11  O   -0.536936
    12  H    0.181967
    13  H    0.180078
    14  H    0.191042
    15  H    0.185743
    16  H    0.202446
    17  H    0.180311
    18  H    0.174588
    19  H    0.389931
    20  H    0.407805
    21  H    0.385205
 Sum of Mulliken atomic charges =   0.00000

 Dipole moment (field-independent basis, Debye):
    X=              2.2868    Y=             -2.1658    Z=              4.2399  Tot=              5.2818
 Quadrupole moment (field-independent basis, Debye-Ang):
   XX=            -57.0556   YY=            -73.1186   ZZ=            -62.3014
   XY=              4.5025   XZ=              3.3431   YZ=             -8.4455

 Normal termination of Gaussian 09 at Fri Apr 12 12:32:14 2019.
