 Gaussian 09, Revision C.01,
 Gaussian 09:  EM64L-G09RevC.01 23-Sep-2011

 -----------------------------------------------------------
 # B3LYP/6-31+G** test scrf=(pcm,solvent=water,smd,dovacuum)
 -----------------------------------------------------------

 99/5=1,9=1/99;
 -------
 comment
 -------
 Charge =  0 Multiplicity = 1

                         Standard orientation:
 ---------------------------------------------------------------------
 Center     Atomic      Atomic             Coordinates (Angstroms)
 Number     Number       Type             X           Y           Z
 ---------------------------------------------------------------------
      1          6           0       -1.916304   -0.245051    1.006662
      2          6           0       -1.191789   -1.124941   -0.023135
      3          6           0       -0.914753    0.978326   -0.669864
      4          6           0        0.998700   -0.034311    0.577306
      5          6           0        0.614497    0.999028   -0.482680
      6          6           0        0.277272   -1.377486    0.344363
      7          8           0       -1.265890   -0.288140   -1.193029
      8          8           0       -1.598542    1.095433    0.579190
      9          8           0        0.889259   -2.091149   -0.719971
     10          8           0        2.399156   -0.305729    0.569227
     11          8           0        1.122983    2.251582   -0.031642
     12          1           0       -1.570472   -0.395248    2.034200
     13          1           0       -3.000717   -0.392460    0.965898
     14          1           0       -1.703428   -2.062193   -0.247694
     15          1           0       -1.263910    1.763004   -1.347476
     16          1           0        0.702673    0.371019    1.553797
     17          1           0        1.065338    0.716411   -1.442999
     18          1           0        0.315004   -1.968090    1.273883
     19          1           0        1.842047   -1.902700   -0.635369
     20          1           0        2.848278    0.553484    0.494890
     21          1           0        1.183722    2.847403   -0.795241
 ---------------------------------------------------------------------

 SCF Done:  E(RB3LYP) =  -610.810157452     A.U. after   12 cycles

 The electronic state is 1-A.
 Alpha  occ. eigenvalues --  -19.18384 -19.17552 -19.17403 -19.17376 -19.16650
 Alpha  occ. eigenvalues --  -10.29355 -10.25204 -10.24838 -10.24724 -10.24515
 Alpha  occ. eigenvalues --  -10.24116  -1.11213  -1.05662  -1.03958  -1.02302
 Alpha  occ. eigenvalues --   -1.01077  -0.79689  -0.78366  -0.67855  -0.65650
 Alpha  occ. eigenvalues --   -0.62810  -0.58447  -0.54911  -0.54571  -0.51046
 Alpha  occ. eigenvalues --   -0.50634  -0.48913  -0.47152  -0.46300  -0.44541
 Alpha  occ. eigenvalues --   -0.43513  -0.41358  -0.40207  -0.38335  -0.37764
 Alpha  occ. eigenvalues --   -0.36194  -0.35858  -0.34141  -0.31892  -0.30126
 Alpha  occ. eigenvalues --   -0.29431  -0.28299  -0.26209
 Alpha virt. eigenvalues --    0.00646   0.01414   0.01960   0.02864   0.04032
 Alpha virt. eigenvalues --    0.04910   0.05639   0.05748   0.06013   0.07953
 Alpha virt. eigenvalues --    0.08377   0.09928   0.10123   0.10426   0.11825

 Mulliken atomic charges:
              1
     1  C   -0.150451
     2  C    0.314662
     3  C    0.041817
     4  C    0.057224
     5  C    0.082949
     6  C   -0.025747
     7  O   -0.409059
     8  O   -0.457042
     9  O   -0.633360
    10  O   -0.649543
    11  O   -0.627064
    12  H    0.177353
    13  H    0.167624
    14  H    0.176267
    15  H    0.171254
    16  H    0.180275
    17  H    0.179818
    18  H    0.164390
    19  H    0.408706
    20  H    0.411102
    21  H    0.418826
 Sum of Mulliken atomic charges =   0.00000

 Dipole moment (field-independent basis, Debye):
    X=              0.5938    Y=              1.4535    Z=              0.4765  Tot=              1.6409
 Quadrupole moment (field-independent basis, Debye-Ang):
   XX=            -62.2759   YY=            -66.3935   ZZ=            -65.0882
   XY=              8.7032   XZ=             -5.7654   YZ=            -13.3018

 Normal termination of Gaussian 09 at Mon Apr 15 18:58:26 2019.
