 Gaussian 09, Revision C.01,
 Gaussian 09:  EM64L-G09RevC.01 23-Sep-2011

 -----------------------------------------------------------
 # B3LYP/6-31+G** test scrf=(pcm,solvent=water,smd,dovacuum)
 -----------------------------------------------------------

 99/5=1,9=1/99;
 -------
 comment
 -------
 Charge =  0 Multiplicity = 1

                         Standard orientation:
 ---------------------------------------------------------------------
 Center     Atomic      Atomic             Coordinates (Angstroms)
 Number     Number       Type             X           Y           Z
 ---------------------------------------------------------------------
      1          6           0       -1.853357   -0.393217    1.027700
      2          6           0       -1.053643   -1.245797    0.028257
      3          6           0       -1.002735    0.838915   -0.726041
      4          6           0        1.015230    0.083402    0.559064
      5          6           0        0.504258    1.054830   -0.517326
      6          6           0        0.438021   -1.335031    0.377318
      7          8           0       -1.220996   -0.478077   -1.178875
      8          8           0       -1.691908    0.951951    0.525384
      9          8           0        1.103899   -2.011975   -0.678094
     10          8           0        2.435420   -0.039170    0.534882
     11          8           0        0.825205    2.401023   -0.180896
     12          1           0       -1.479160   -0.450630    2.054403
     13          1           0       -2.915944   -0.655799    1.015466
     14          1           0       -1.474478   -2.237536   -0.144464
     15          1           0       -1.427060    1.551241   -1.438467
     16          1           0        0.693573    0.468497    1.537434
     17          1           0        1.012557    0.851854   -1.464949
     18          1           0        0.551580   -1.890074    1.322492
     19          1           0        2.034229   -1.728297   -0.613565
     20          1           0        2.797085    0.858799    0.445017
     21          1           0        0.308028    2.623311    0.613591
 ---------------------------------------------------------------------

 SCF Done:  E(RB3LYP) =  -610.810861606     A.U. after   12 cycles

 The electronic state is 1-A.
 Alpha  occ. eigenvalues --  -19.18506 -19.17673 -19.17429 -19.17406 -19.16668
 Alpha  occ. eigenvalues --  -10.29448 -10.25268 -10.24844 -10.24724 -10.24486
 Alpha  occ. eigenvalues --  -10.24196  -1.11320  -1.05624  -1.04084  -1.02355
 Alpha  occ. eigenvalues --   -1.01135  -0.79760  -0.78071  -0.67996  -0.65855
 Alpha  occ. eigenvalues --   -0.62662  -0.58977  -0.55735  -0.52964  -0.52090
 Alpha  occ. eigenvalues --   -0.50878  -0.48169  -0.47358  -0.45914  -0.44839
 Alpha  occ. eigenvalues --   -0.42446  -0.41650  -0.40506  -0.39092  -0.37350
 Alpha  occ. eigenvalues --   -0.37001  -0.35324  -0.34498  -0.32004  -0.30271
 Alpha  occ. eigenvalues --   -0.29465  -0.28252  -0.26154
 Alpha virt. eigenvalues --    0.00731   0.01426   0.02174   0.02591   0.04336
 Alpha virt. eigenvalues --    0.05068   0.05204   0.05725   0.06050   0.07854
 Alpha virt. eigenvalues --    0.08752   0.09800   0.10231   0.10432   0.11784

 Mulliken atomic charges:
              1
     1  C   -0.153484
     2  C    0.312337
     3  C    0.020035
     4  C    0.099710
     5  C    0.046967
     6  C   -0.034123
     7  O   -0.404130
     8  O   -0.469452
     9  O   -0.628687
    10  O   -0.647964
    11  O   -0.589424
    12  H    0.178589
    13  H    0.168898
    14  H    0.176759
    15  H    0.174126
    16  H    0.179470
    17  H    0.183622
    18  H    0.164217
    19  H    0.408336
    20  H    0.413187
    21  H    0.401012
 Sum of Mulliken atomic charges =   0.00000

 Dipole moment (field-independent basis, Debye):
    X=             -0.5403    Y=              0.6050    Z=              3.9522  Tot=              4.0346
 Quadrupole moment (field-independent basis, Debye-Ang):
   XX=            -64.9478   YY=            -70.4380   ZZ=            -64.7319
   XY=              5.1480   XZ=             -2.5428   YZ=             -3.6191

 Normal termination of Gaussian 09 at Mon Apr 15 18:49:45 2019.
