 Gaussian 09, Revision C.01,
 Gaussian 09:  EM64L-G09RevC.01 23-Sep-2011

 -----------------------------------------------------------
 # B3LYP/6-31+G** test scrf=(pcm,solvent=water,smd,dovacuum)
 -----------------------------------------------------------

 99/5=1,9=1/99;
 -------
 comment
 -------
 Charge =  0 Multiplicity = 1

                         Standard orientation:
 ---------------------------------------------------------------------
 Center     Atomic      Atomic             Coordinates (Angstroms)
 Number     Number       Type             X           Y           Z
 ---------------------------------------------------------------------
      1          6           0        1.232123   -1.699340   -0.454171
      2          6           0       -0.115572   -1.402926    0.210106
      3          6           0        1.251326    0.230199    0.821878
      4          6           0       -0.924827    0.979808   -0.277663
      5          6           0        0.507881    1.401399    0.123253
      6          6           0       -1.034896   -0.515921   -0.670888
      7          8           0        0.332600   -0.679063    1.376732
      8          8           0        1.988784   -0.503042   -0.176746
      9          8           0       -2.416799   -0.842270   -0.522939
     10          8           0       -1.768247    1.259718    0.833235
     11          8           0        1.265090    1.884604   -0.974136
     12          1           0        1.177276   -1.847827   -1.535195
     13          1           0        1.726238   -2.558802    0.010814
     14          1           0       -0.639225   -2.296348    0.555718
     15          1           0        1.941622    0.564613    1.598918
     16          1           0       -1.221412    1.588421   -1.144336
     17          1           0        0.392759    2.226468    0.833888
     18          1           0       -0.740994   -0.628127   -1.722897
     19          1           0       -2.562216   -1.751216   -0.829205
     20          1           0       -2.540181    0.674374    0.732010
     21          1           0        1.758503    1.109544   -1.303989
 ---------------------------------------------------------------------

 SCF Done:  E(RB3LYP) =  -610.801547831     A.U. after   12 cycles

 The electronic state is 1-A.
 Alpha  occ. eigenvalues --  -19.18550 -19.18071 -19.17491 -19.16707 -19.16314
 Alpha  occ. eigenvalues --  -10.29627 -10.25098 -10.24999 -10.24519 -10.24463
 Alpha  occ. eigenvalues --  -10.24054  -1.11453  -1.05386  -1.03928  -1.02218
 Alpha  occ. eigenvalues --   -1.01106  -0.79294  -0.77464  -0.68334  -0.65784
 Alpha  occ. eigenvalues --   -0.62629  -0.57583  -0.55523  -0.53917  -0.53348
 Alpha  occ. eigenvalues --   -0.50843  -0.47894  -0.45767  -0.45344  -0.45010
 Alpha  occ. eigenvalues --   -0.42638  -0.41229  -0.40513  -0.38388  -0.38233
 Alpha  occ. eigenvalues --   -0.36602  -0.35096  -0.34613  -0.31779  -0.30053
 Alpha  occ. eigenvalues --   -0.29687  -0.27918  -0.25981
 Alpha virt. eigenvalues --    0.00752   0.01112   0.02552   0.02942   0.04000
 Alpha virt. eigenvalues --    0.04598   0.04896   0.05296   0.05985   0.08394
 Alpha virt. eigenvalues --    0.09307   0.09473   0.09939   0.10978   0.11391

 Mulliken atomic charges:
              1
     1  C   -0.217111
     2  C    0.382226
     3  C    0.089128
     4  C    0.131142
     5  C    0.075031
     6  C   -0.119525
     7  O   -0.412038
     8  O   -0.499187
     9  O   -0.677870
    10  O   -0.636546
    11  O   -0.576348
    12  H    0.173890
    13  H    0.167695
    14  H    0.179904
    15  H    0.175504
    16  H    0.154863
    17  H    0.171420
    18  H    0.177435
    19  H    0.431246
    20  H    0.418868
    21  H    0.410275
 Sum of Mulliken atomic charges =   0.00000

 Dipole moment (field-independent basis, Debye):
    X=             -0.5543    Y=             -6.5491    Z=             -3.1204  Tot=              7.2756
 Quadrupole moment (field-independent basis, Debye-Ang):
   XX=            -68.5572   YY=            -62.8248   ZZ=            -66.6353
   XY=              4.4005   XZ=              4.8437   YZ=              6.5809

 Normal termination of Gaussian 09 at Mon Apr 15 19:16:34 2019.
