 Gaussian 09, Revision C.01,
 Gaussian 09:  EM64L-G09RevC.01 23-Sep-2011

 ------------------------------------------------
 # mpw1pw91/6-31+g** nmr scrf=(pcm,solvent=water)
 ------------------------------------------------

 99/9=1/99;
 -------
 comment
 -------
 Charge =  0 Multiplicity = 1

                         Standard orientation:
 ---------------------------------------------------------------------
 Center     Atomic      Atomic             Coordinates (Angstroms)
 Number     Number       Type             X           Y           Z
 ---------------------------------------------------------------------
      1          6           0        1.232123   -1.699340   -0.454171
      2          6           0       -0.115572   -1.402926    0.210106
      3          6           0        1.251326    0.230199    0.821878
      4          6           0       -0.924827    0.979808   -0.277663
      5          6           0        0.507881    1.401399    0.123253
      6          6           0       -1.034896   -0.515921   -0.670888
      7          8           0        0.332600   -0.679063    1.376732
      8          8           0        1.988784   -0.503042   -0.176746
      9          8           0       -2.416799   -0.842270   -0.522939
     10          8           0       -1.768247    1.259718    0.833235
     11          8           0        1.265090    1.884604   -0.974136
     12          1           0        1.177276   -1.847827   -1.535195
     13          1           0        1.726238   -2.558802    0.010814
     14          1           0       -0.639225   -2.296348    0.555718
     15          1           0        1.941622    0.564613    1.598918
     16          1           0       -1.221412    1.588421   -1.144336
     17          1           0        0.392759    2.226468    0.833888
     18          1           0       -0.740994   -0.628127   -1.722897
     19          1           0       -2.562216   -1.751216   -0.829205
     20          1           0       -2.540181    0.674374    0.732010
     21          1           0        1.758503    1.109544   -1.303989
 ---------------------------------------------------------------------

 SCF Done:  E(RmPW1PW91) =  -610.643336691     A.U. after   12 cycles

      1  C    Isotropic =   128.0573   Anisotropy =    47.0390

      2  C    Isotropic =   114.8871   Anisotropy =    38.2135

      3  C    Isotropic =    96.2866   Anisotropy =    38.3860

      4  C    Isotropic =   124.0919   Anisotropy =    49.4527

      5  C    Isotropic =   124.7715   Anisotropy =    44.5361

      6  C    Isotropic =   122.1240   Anisotropy =    40.8444

      7  O    Isotropic =   245.0708   Anisotropy =    68.4209

      8  O    Isotropic =   276.2253   Anisotropy =   101.5664

      9  O    Isotropic =   290.6602   Anisotropy =    38.7189

     10  O    Isotropic =   307.4887   Anisotropy =    45.1811

     11  O    Isotropic =   302.5205   Anisotropy =    43.8843

     12  H    Isotropic =    27.8139   Anisotropy =     7.9816

     13  H    Isotropic =    27.8740   Anisotropy =    11.0330

     14  H    Isotropic =    27.2590   Anisotropy =     6.5387

     15  H    Isotropic =    25.9576   Anisotropy =     8.8358

     16  H    Isotropic =    27.5527   Anisotropy =     6.9621

     17  H    Isotropic =    27.7731   Anisotropy =     5.7820

     18  H    Isotropic =    27.7006   Anisotropy =     4.5961

     19  H    Isotropic =    29.3329   Anisotropy =    18.9552

     20  H    Isotropic =    28.2556   Anisotropy =    17.9458

     21  H    Isotropic =    28.6381   Anisotropy =    16.1401

 The electronic state is 1-A.
 Alpha  occ. eigenvalues --  -19.28005 -19.27853 -19.27435 -19.25830 -19.25310
 Alpha  occ. eigenvalues --  -10.36251 -10.32134 -10.32066 -10.31132 -10.31082
 Alpha  occ. eigenvalues --  -10.31045  -1.14813  -1.08804  -1.06883  -1.05280
 Alpha  occ. eigenvalues --   -1.04177  -0.82495  -0.80317  -0.71164  -0.68449
 Alpha  occ. eigenvalues --   -0.65221  -0.59836  -0.57909  -0.56046  -0.55748
 Alpha  occ. eigenvalues --   -0.52933  -0.50057  -0.47951  -0.47348  -0.47018
 Alpha  occ. eigenvalues --   -0.44478  -0.43014  -0.42317  -0.40127  -0.39922
 Alpha  occ. eigenvalues --   -0.38116  -0.36601  -0.36434  -0.33425  -0.31473
 Alpha  occ. eigenvalues --   -0.31187  -0.29535  -0.27324
 Alpha virt. eigenvalues --    0.00570   0.01048   0.02388   0.02793   0.03784
 Alpha virt. eigenvalues --    0.04456   0.04669   0.05139   0.05812   0.08218
 Alpha virt. eigenvalues --    0.09154   0.09214   0.09751   0.10708   0.11218

 Mulliken atomic charges:
              1
     1  C   -0.266396
     2  C    0.343920
     3  C   -0.020433
     4  C    0.059993
     5  C    0.056362
     6  C   -0.198750
     7  O   -0.321339
     8  O   -0.446193
     9  O   -0.618497
    10  O   -0.569004
    11  O   -0.510312
    12  H    0.182333
    13  H    0.183261
    14  H    0.192608
    15  H    0.189870
    16  H    0.172093
    17  H    0.184334
    18  H    0.184695
    19  H    0.408043
    20  H    0.400688
    21  H    0.392723
 Sum of Mulliken atomic charges =   0.00000

 Dipole moment (field-independent basis, Debye):
    X=             -0.5344    Y=             -6.0242    Z=             -2.6808  Tot=              6.6154
 Quadrupole moment (field-independent basis, Debye-Ang):
   XX=            -67.3265   YY=            -62.2090   ZZ=            -65.8973
   XY=              4.0188   XZ=              4.4362   YZ=              6.1115

 Normal termination of Gaussian 09 at Fri Apr 12 12:44:39 2019.
