 Gaussian 09, Revision C.01,
 Gaussian 09:  EM64L-G09RevC.01 23-Sep-2011

 ------------------------------------------------
 # mpw1pw91/6-31+g** nmr scrf=(pcm,solvent=water)
 ------------------------------------------------

 99/9=1/99;
 -------
 comment
 -------
 Charge =  0 Multiplicity = 1

                         Standard orientation:
 ---------------------------------------------------------------------
 Center     Atomic      Atomic             Coordinates (Angstroms)
 Number     Number       Type             X           Y           Z
 ---------------------------------------------------------------------
      1          6           0        1.848518   -0.469692   -1.026040
      2          6           0        0.985152   -1.292031   -0.061779
      3          6           0        1.020871    0.792880    0.715277
      4          6           0       -1.042898    0.153166   -0.585185
      5          6           0       -0.469311    1.110026    0.477727
      6          6           0       -0.507684   -1.289381   -0.400598
      7          8           0        1.139583   -0.550045    1.169413
      8          8           0        1.764130    0.866718   -0.497377
      9          8           0       -1.243908   -1.938750    0.642892
     10          8           0       -2.461574    0.135714   -0.587098
     11          8           0       -0.659798    2.439086    0.010399
     12          1           0        1.482268   -0.486966   -2.057622
     13          1           0        2.892067   -0.800691   -1.009093
     14          1           0        1.350314   -2.306213    0.108382
     15          1           0        1.475097    1.458709    1.454991
     16          1           0       -0.730789    0.535039   -1.563000
     17          1           0       -0.999132    0.951735    1.428669
     18          1           0       -0.703307   -1.866881   -1.309325
     19          1           0       -0.848234   -1.643023    1.483192
     20          1           0       -2.698683   -0.535659    0.080967
     21          1           0       -0.534954    3.042356    0.760602
 ---------------------------------------------------------------------

 SCF Done:  E(RmPW1PW91) =  -610.652277042     A.U. after   12 cycles

      1  C    Isotropic =   129.6695   Anisotropy =    63.0549

      2  C    Isotropic =   117.1994   Anisotropy =    48.9405

      3  C    Isotropic =    92.4444   Anisotropy =    25.4801

      4  C    Isotropic =   124.9442   Anisotropy =    34.5958

      5  C    Isotropic =   119.0158   Anisotropy =    23.0643

      6  C    Isotropic =   123.1411   Anisotropy =    38.4185

      7  O    Isotropic =   243.2506   Anisotropy =    66.7371

      8  O    Isotropic =   275.0009   Anisotropy =   102.7261

      9  O    Isotropic =   303.8698   Anisotropy =    42.1987

     10  O    Isotropic =   302.8608   Anisotropy =    32.7011

     11  O    Isotropic =   300.7356   Anisotropy =    64.1850

     12  H    Isotropic =    27.7005   Anisotropy =     7.4129

     13  H    Isotropic =    27.5904   Anisotropy =    11.4090

     14  H    Isotropic =    26.9436   Anisotropy =     8.4924

     15  H    Isotropic =    26.3013   Anisotropy =     7.5049

     16  H    Isotropic =    27.9891   Anisotropy =     3.1576

     17  H    Isotropic =    28.1096   Anisotropy =     3.0702

     18  H    Isotropic =    27.8057   Anisotropy =     7.2474

     19  H    Isotropic =    29.6210   Anisotropy =    15.2429

     20  H    Isotropic =    28.5935   Anisotropy =    15.6716

     21  H    Isotropic =    29.8097   Anisotropy =    20.6853

 The electronic state is 1-A.
 Alpha  occ. eigenvalues --  -19.28542 -19.27282 -19.27136 -19.26526 -19.25799
 Alpha  occ. eigenvalues --  -10.36143 -10.32396 -10.31969 -10.31327 -10.31266
 Alpha  occ. eigenvalues --  -10.31156  -1.14742  -1.08775  -1.07277  -1.05375
 Alpha  occ. eigenvalues --   -1.04280  -0.82813  -0.80982  -0.70987  -0.68182
 Alpha  occ. eigenvalues --   -0.65694  -0.61217  -0.58102  -0.55654  -0.54384
 Alpha  occ. eigenvalues --   -0.52240  -0.51100  -0.49184  -0.47561  -0.46851
 Alpha  occ. eigenvalues --   -0.45048  -0.43850  -0.41649  -0.40492  -0.39297
 Alpha  occ. eigenvalues --   -0.38639  -0.36665  -0.35886  -0.34041  -0.32588
 Alpha  occ. eigenvalues --   -0.30697  -0.29706  -0.27742
 Alpha virt. eigenvalues --    0.00764   0.01520   0.01697   0.02348   0.03716
 Alpha virt. eigenvalues --    0.04835   0.05402   0.05540   0.05945   0.07665
 Alpha virt. eigenvalues --    0.08182   0.09628   0.10143   0.10413   0.11109

 Mulliken atomic charges:
              1
     1  C   -0.198903
     2  C    0.273960
     3  C   -0.093098
     4  C   -0.084215
     5  C    0.100056
     6  C   -0.114823
     7  O   -0.364213
     8  O   -0.365412
     9  O   -0.568794
    10  O   -0.536667
    11  O   -0.544865
    12  H    0.184618
    13  H    0.182701
    14  H    0.201683
    15  H    0.187923
    16  H    0.191872
    17  H    0.180359
    18  H    0.196478
    19  H    0.393782
    20  H    0.386989
    21  H    0.390567
 Sum of Mulliken atomic charges =   0.00000

 Dipole moment (field-independent basis, Debye):
    X=              2.6952    Y=             -1.7874    Z=              2.1589  Tot=              3.8884
 Quadrupole moment (field-independent basis, Debye-Ang):
   XX=            -73.4185   YY=            -64.6624   ZZ=            -59.6284
   XY=             -2.5526   XZ=             -6.4364   YZ=             10.7790

 Normal termination of Gaussian 09 at Fri Apr 12 12:38:34 2019.
