 Gaussian 09, Revision C.01,
 Gaussian 09:  EM64L-G09RevC.01 23-Sep-2011

 -----------------------------------------------------------
 # B3LYP/6-31+G** test scrf=(pcm,solvent=water,smd,dovacuum)
 -----------------------------------------------------------

 99/5=1,9=1/99;
 -------
 comment
 -------
 Charge =  0 Multiplicity = 1

                         Standard orientation:
 ---------------------------------------------------------------------
 Center     Atomic      Atomic             Coordinates (Angstroms)
 Number     Number       Type             X           Y           Z
 ---------------------------------------------------------------------
      1          6           0        1.848518   -0.469692   -1.026040
      2          6           0        0.985152   -1.292031   -0.061779
      3          6           0        1.020871    0.792880    0.715277
      4          6           0       -1.042898    0.153166   -0.585185
      5          6           0       -0.469311    1.110026    0.477727
      6          6           0       -0.507684   -1.289381   -0.400598
      7          8           0        1.139583   -0.550045    1.169413
      8          8           0        1.764130    0.866718   -0.497377
      9          8           0       -1.243908   -1.938750    0.642892
     10          8           0       -2.461574    0.135714   -0.587098
     11          8           0       -0.659798    2.439086    0.010399
     12          1           0        1.482268   -0.486966   -2.057622
     13          1           0        2.892067   -0.800691   -1.009093
     14          1           0        1.350314   -2.306213    0.108382
     15          1           0        1.475097    1.458709    1.454991
     16          1           0       -0.730789    0.535039   -1.563000
     17          1           0       -0.999132    0.951735    1.428669
     18          1           0       -0.703307   -1.866881   -1.309325
     19          1           0       -0.848234   -1.643023    1.483192
     20          1           0       -2.698683   -0.535659    0.080967
     21          1           0       -0.534954    3.042356    0.760602
 ---------------------------------------------------------------------

 SCF Done:  E(RB3LYP) =  -610.812067127     A.U. after   12 cycles

 The electronic state is 1-A.
 Alpha  occ. eigenvalues --  -19.18747 -19.17655 -19.17473 -19.17106 -19.16632
 Alpha  occ. eigenvalues --  -10.29413 -10.25363 -10.24966 -10.24497 -10.24403
 Alpha  occ. eigenvalues --  -10.24239  -1.11303  -1.05440  -1.04017  -1.02293
 Alpha  occ. eigenvalues --   -1.01139  -0.79597  -0.77948  -0.68105  -0.65482
 Alpha  occ. eigenvalues --   -0.63029  -0.58765  -0.55705  -0.53375  -0.52053
 Alpha  occ. eigenvalues --   -0.50140  -0.48989  -0.46924  -0.45484  -0.44739
 Alpha  occ. eigenvalues --   -0.42990  -0.41891  -0.39855  -0.38728  -0.37695
 Alpha  occ. eigenvalues --   -0.36855  -0.35000  -0.34251  -0.32317  -0.30936
 Alpha  occ. eigenvalues --   -0.29120  -0.28122  -0.26315
 Alpha virt. eigenvalues --    0.00874   0.01679   0.01843   0.02545   0.03928
 Alpha virt. eigenvalues --    0.04998   0.05547   0.05776   0.06151   0.07795
 Alpha virt. eigenvalues --    0.08388   0.09781   0.10404   0.10611   0.11351

 Mulliken atomic charges:
              1
     1  C   -0.152526
     2  C    0.298790
     3  C    0.026555
     4  C   -0.002930
     5  C    0.152976
     6  C   -0.057671
     7  O   -0.427176
     8  O   -0.446589
     9  O   -0.622461
    10  O   -0.618265
    11  O   -0.622672
    12  H    0.178147
    13  H    0.168909
    14  H    0.183183
    15  H    0.172757
    16  H    0.181428
    17  H    0.173586
    18  H    0.180204
    19  H    0.410952
    20  H    0.406422
    21  H    0.416380
 Sum of Mulliken atomic charges =   0.00000

 Dipole moment (field-independent basis, Debye):
    X=              2.8514    Y=             -2.0244    Z=              2.4510  Tot=              4.2704
 Quadrupole moment (field-independent basis, Debye-Ang):
   XX=            -75.2007   YY=            -65.6759   ZZ=            -59.8098
   XY=             -2.7939   XZ=             -7.0604   YZ=             11.8021

 Normal termination of Gaussian 09 at Mon Apr 15 19:08:14 2019.
