 Gaussian 09, Revision C.01,
 Gaussian 09:  EM64L-G09RevC.01 23-Sep-2011

 ------------------------------------------------
 # mpw1pw91/6-31+g** nmr scrf=(pcm,solvent=water)
 ------------------------------------------------

 99/9=1/99;
 -------
 comment
 -------
 Charge =  0 Multiplicity = 1

                         Standard orientation:
 ---------------------------------------------------------------------
 Center     Atomic      Atomic             Coordinates (Angstroms)
 Number     Number       Type             X           Y           Z
 ---------------------------------------------------------------------
      1          6           0        1.746955   -0.673597   -1.040899
      2          6           0        0.776452   -1.415123   -0.111163
      3          6           0        1.103673    0.602094    0.771641
      4          6           0       -1.024995    0.316854   -0.568436
      5          6           0       -0.303746    1.162078    0.511718
      6          6           0       -0.703626   -1.193300   -0.433884
      7          8           0        1.029420   -0.760511    1.153388
      8          8           0        1.857943    0.634912   -0.443281
      9          8           0       -1.516194   -1.762008    0.599040
     10          8           0       -2.430312    0.509913   -0.549957
     11          8           0       -0.231522    2.536295    0.155055
     12          1           0        1.381447   -0.584373   -2.068516
     13          1           0        2.733120   -1.147818   -1.048496
     14          1           0        1.001819   -2.475901    0.009357
     15          1           0        1.636709    1.166216    1.540740
     16          1           0       -0.675952    0.667492   -1.546805
     17          1           0       -0.873279    1.122629    1.446427
     18          1           0       -0.986226   -1.709002   -1.356859
     19          1           0       -1.076080   -1.549370    1.442530
     20          1           0       -2.757813   -0.140961    0.099946
     21          1           0        0.373295    2.588249   -0.606150
 ---------------------------------------------------------------------

 SCF Done:  E(RmPW1PW91) =  -610.653388396     A.U. after   12 cycles

      1  C    Isotropic =   129.6738   Anisotropy =    63.8679

      2  C    Isotropic =   117.0640   Anisotropy =    49.6853

      3  C    Isotropic =    93.1322   Anisotropy =    26.5371

      4  C    Isotropic =   122.4069   Anisotropy =    30.1231

      5  C    Isotropic =   119.0547   Anisotropy =    21.6526

      6  C    Isotropic =   123.2898   Anisotropy =    37.9900

      7  O    Isotropic =   242.9194   Anisotropy =    66.0354

      8  O    Isotropic =   274.8723   Anisotropy =    98.7530

      9  O    Isotropic =   304.6749   Anisotropy =    44.0722

     10  O    Isotropic =   302.2303   Anisotropy =    33.7859

     11  O    Isotropic =   295.9057   Anisotropy =    37.4262

     12  H    Isotropic =    27.7347   Anisotropy =     7.4185

     13  H    Isotropic =    27.5940   Anisotropy =    11.4209

     14  H    Isotropic =    26.9004   Anisotropy =     8.5133

     15  H    Isotropic =    26.2342   Anisotropy =     7.6975

     16  H    Isotropic =    28.2012   Anisotropy =     2.9735

     17  H    Isotropic =    28.3192   Anisotropy =     3.2199

     18  H    Isotropic =    27.8171   Anisotropy =     7.2071

     19  H    Isotropic =    29.5748   Anisotropy =    15.2124

     20  H    Isotropic =    28.5747   Anisotropy =    15.6550

     21  H    Isotropic =    29.9899   Anisotropy =    14.9076

 The electronic state is 1-A.
 Alpha  occ. eigenvalues --  -19.28775 -19.27624 -19.27326 -19.26531 -19.25897
 Alpha  occ. eigenvalues --  -10.36314 -10.32569 -10.32056 -10.31425 -10.31403
 Alpha  occ. eigenvalues --  -10.31226  -1.15032  -1.08825  -1.07434  -1.05461
 Alpha  occ. eigenvalues --   -1.04526  -0.82997  -0.80768  -0.71180  -0.68446
 Alpha  occ. eigenvalues --   -0.65729  -0.62087  -0.58454  -0.55358  -0.53635
 Alpha  occ. eigenvalues --   -0.52339  -0.51465  -0.49451  -0.47861  -0.46742
 Alpha  occ. eigenvalues --   -0.45011  -0.43380  -0.42628  -0.40981  -0.39493
 Alpha  occ. eigenvalues --   -0.38084  -0.36805  -0.35600  -0.35162  -0.33358
 Alpha  occ. eigenvalues --   -0.30699  -0.29866  -0.27616
 Alpha virt. eigenvalues --    0.00811   0.01575   0.01937   0.02179   0.04062
 Alpha virt. eigenvalues --    0.04709   0.05213   0.05492   0.05917   0.07588
 Alpha virt. eigenvalues --    0.08521   0.09520   0.10288   0.10419   0.11057

 Mulliken atomic charges:
              1
     1  C   -0.204765
     2  C    0.265242
     3  C   -0.077585
     4  C   -0.050891
     5  C    0.050196
     6  C   -0.109461
     7  O   -0.360127
     8  O   -0.405317
     9  O   -0.565004
    10  O   -0.530719
    11  O   -0.509989
    12  H    0.187342
    13  H    0.186308
    14  H    0.203095
    15  H    0.194364
    16  H    0.184627
    17  H    0.188189
    18  H    0.196892
    19  H    0.393913
    20  H    0.387244
    21  H    0.376448
 Sum of Mulliken atomic charges =   0.00000

 Dipole moment (field-independent basis, Debye):
    X=              3.0860    Y=             -3.4056    Z=             -0.8972  Tot=              4.6826
 Quadrupole moment (field-independent basis, Debye-Ang):
   XX=            -73.1693   YY=            -71.2163   ZZ=            -59.1265
   XY=              0.6716   XZ=             -5.5870   YZ=              2.2866

 Normal termination of Gaussian 09 at Fri Apr 12 12:31:58 2019.
