 Gaussian 09, Revision C.01,
 Gaussian 09:  EM64L-G09RevC.01 23-Sep-2011

 ------------------------------------------------
 # mpw1pw91/6-31+g** nmr scrf=(pcm,solvent=water)
 ------------------------------------------------

 99/9=1/99;
 -------
 comment
 -------
 Charge =  0 Multiplicity = 1

                         Standard orientation:
 ---------------------------------------------------------------------
 Center     Atomic      Atomic             Coordinates (Angstroms)
 Number     Number       Type             X           Y           Z
 ---------------------------------------------------------------------
      1          6           0       -1.835096   -0.199528    1.075556
      2          6           0       -1.132165   -1.153797    0.094010
      3          6           0       -0.936188    0.885871   -0.748771
      4          6           0        1.039638    0.009654    0.533064
      5          6           0        0.585357    0.989986   -0.562777
      6          6           0        0.370397   -1.366050    0.383435
      7          8           0       -1.272195   -0.425879   -1.141023
      8          8           0       -1.591917    1.106306    0.507865
      9          8           0        0.997130   -2.059612   -0.687633
     10          8           0        2.451821   -0.130363    0.561413
     11          8           0        0.996847    2.317513   -0.245092
     12          1           0       -1.436531   -0.241248    2.093791
     13          1           0       -2.914037   -0.382137    1.103058
     14          1           0       -1.647429   -2.110132   -0.021231
     15          1           0       -1.315831    1.600969   -1.483142
     16          1           0        0.694428    0.424623    1.492676
     17          1           0        1.073517    0.738585   -1.508906
     18          1           0        0.484059   -1.924417    1.325288
     19          1           0        0.577761   -2.932547   -0.758349
     20          1           0        2.802046    0.775454    0.613560
     21          1           0        0.476877    2.590300    0.531923
 ---------------------------------------------------------------------

 SCF Done:  E(RmPW1PW91) =  -610.648383332     A.U. after   12 cycles

      1  C    Isotropic =   129.6571   Anisotropy =    62.4738

      2  C    Isotropic =   115.1380   Anisotropy =    48.1781

      3  C    Isotropic =    92.8485   Anisotropy =    25.6570

      4  C    Isotropic =   122.8736   Anisotropy =    32.1541

      5  C    Isotropic =   119.6901   Anisotropy =    24.5093

      6  C    Isotropic =   123.5393   Anisotropy =    41.2852

      7  O    Isotropic =   237.4826   Anisotropy =    49.9119

      8  O    Isotropic =   272.7275   Anisotropy =    96.2459

      9  O    Isotropic =   297.9068   Anisotropy =    68.3744

     10  O    Isotropic =   308.6501   Anisotropy =    42.2816

     11  O    Isotropic =   302.1607   Anisotropy =    58.6379

     12  H    Isotropic =    27.7862   Anisotropy =     7.1779

     13  H    Isotropic =    27.7023   Anisotropy =    11.5561

     14  H    Isotropic =    27.1586   Anisotropy =     8.0755

     15  H    Isotropic =    26.1644   Anisotropy =     7.5721

     16  H    Isotropic =    27.9652   Anisotropy =     5.4618

     17  H    Isotropic =    27.9780   Anisotropy =     2.8900

     18  H    Isotropic =    27.3934   Anisotropy =     6.4008

     19  H    Isotropic =    30.2983   Anisotropy =    19.6561

     20  H    Isotropic =    29.2151   Anisotropy =    18.1978

     21  H    Isotropic =    30.2156   Anisotropy =    15.6316

 The electronic state is 1-A.
 Alpha  occ. eigenvalues --  -19.27916 -19.27288 -19.26887 -19.26225 -19.26124
 Alpha  occ. eigenvalues --  -10.36018 -10.32172 -10.31859 -10.31444 -10.31131
 Alpha  occ. eigenvalues --  -10.31054  -1.14581  -1.08323  -1.07243  -1.05542
 Alpha  occ. eigenvalues --   -1.04139  -0.82740  -0.81064  -0.70840  -0.67938
 Alpha  occ. eigenvalues --   -0.65192  -0.61328  -0.57778  -0.56049  -0.54408
 Alpha  occ. eigenvalues --   -0.52232  -0.50761  -0.48524  -0.47208  -0.46488
 Alpha  occ. eigenvalues --   -0.45186  -0.43498  -0.42962  -0.39847  -0.38889
 Alpha  occ. eigenvalues --   -0.38428  -0.36971  -0.36022  -0.33089  -0.31983
 Alpha  occ. eigenvalues --   -0.30966  -0.29481  -0.27495
 Alpha virt. eigenvalues --    0.00526   0.01292   0.01910   0.02391   0.04212
 Alpha virt. eigenvalues --    0.04391   0.05046   0.05595   0.05925   0.07754
 Alpha virt. eigenvalues --    0.08615   0.09595   0.10057   0.10444   0.11230

 Mulliken atomic charges:
              1
     1  C   -0.211142
     2  C    0.239458
     3  C   -0.091659
     4  C   -0.019290
     5  C    0.053900
     6  C   -0.053291
     7  O   -0.312509
     8  O   -0.413356
     9  O   -0.569859
    10  O   -0.550449
    11  O   -0.530057
    12  H    0.184576
    13  H    0.182957
    14  H    0.190530
    15  H    0.190661
    16  H    0.178835
    17  H    0.197353
    18  H    0.179638
    19  H    0.389071
    20  H    0.385049
    21  H    0.379584
 Sum of Mulliken atomic charges =   0.00000

 Dipole moment (field-independent basis, Debye):
    X=             -3.2816    Y=             -1.7441    Z=              3.4111  Tot=              5.0444
 Quadrupole moment (field-independent basis, Debye-Ang):
   XX=            -71.9003   YY=            -58.7103   ZZ=            -63.4405
   XY=              7.6275   XZ=             -0.5966   YZ=             -0.6731

 Normal termination of Gaussian 09 at Fri Apr 12 12:37:18 2019.
