 Gaussian 09, Revision C.01,
 Gaussian 09:  EM64L-G09RevC.01 23-Sep-2011

 -----------------------------------------------------------
 # B3LYP/6-31+G** test scrf=(pcm,solvent=water,smd,dovacuum)
 -----------------------------------------------------------

 99/5=1,9=1/99;
 -------
 comment
 -------
 Charge =  0 Multiplicity = 1

                         Standard orientation:
 ---------------------------------------------------------------------
 Center     Atomic      Atomic             Coordinates (Angstroms)
 Number     Number       Type             X           Y           Z
 ---------------------------------------------------------------------
      1          6           0       -1.882281   -0.391417    1.014242
      2          6           0       -1.078038   -1.219784   -0.000250
      3          6           0       -1.000015    0.890297   -0.687729
      4          6           0        1.007138    0.086163    0.573745
      5          6           0        0.513834    1.065353   -0.504271
      6          6           0        0.413850   -1.322630    0.364840
      7          8           0       -1.225655   -0.414522   -1.185015
      8          8           0       -1.694885    0.963864    0.559868
      9          8           0        1.167722   -1.914071   -0.697498
     10          8           0        2.427147    0.045287    0.624218
     11          8           0        0.799202    2.410271   -0.147365
     12          1           0       -1.523249   -0.487793    2.044023
     13          1           0       -2.947538   -0.643550    0.979406
     14          1           0       -1.506332   -2.202649   -0.206229
     15          1           0       -1.422195    1.624696   -1.378982
     16          1           0        0.675688    0.477066    1.540417
     17          1           0        0.984499    0.811847   -1.466410
     18          1           0        0.531522   -1.906952    1.286742
     19          1           0        1.142482   -2.878026   -0.595443
     20          1           0        2.680472   -0.605613   -0.057445
     21          1           0        1.749482    2.436438    0.056786
 ---------------------------------------------------------------------

 SCF Done:  E(RB3LYP) =  -610.810553013     A.U. after   12 cycles

 The electronic state is 1-A.
 Alpha  occ. eigenvalues --  -19.18374 -19.17548 -19.17368 -19.17035 -19.16854
 Alpha  occ. eigenvalues --  -10.29460 -10.25129 -10.25059 -10.24441 -10.24205
 Alpha  occ. eigenvalues --  -10.24106  -1.11201  -1.05481  -1.03977  -1.02205
 Alpha  occ. eigenvalues --   -1.01091  -0.79632  -0.78179  -0.67747  -0.65571
 Alpha  occ. eigenvalues --   -0.62373  -0.59411  -0.55096  -0.53550  -0.52155
 Alpha  occ. eigenvalues --   -0.49964  -0.49196  -0.46672  -0.45267  -0.44485
 Alpha  occ. eigenvalues --   -0.42967  -0.42378  -0.40700  -0.38041  -0.37391
 Alpha  occ. eigenvalues --   -0.36732  -0.35265  -0.34182  -0.31744  -0.31460
 Alpha  occ. eigenvalues --   -0.28307  -0.27711  -0.26740
 Alpha virt. eigenvalues --    0.00551   0.01447   0.02032   0.02705   0.04184
 Alpha virt. eigenvalues --    0.05096   0.05403   0.05662   0.06067   0.07850
 Alpha virt. eigenvalues --    0.08672   0.09449   0.10344   0.10605   0.11690

 Mulliken atomic charges:
              1
     1  C   -0.160906
     2  C    0.342485
     3  C    0.015598
     4  C   -0.071645
     5  C    0.196208
     6  C   -0.017326
     7  O   -0.408985
     8  O   -0.454656
     9  O   -0.674826
    10  O   -0.629319
    11  O   -0.605339
    12  H    0.177365
    13  H    0.167527
    14  H    0.175190
    15  H    0.170841
    16  H    0.190445
    17  H    0.167496
    18  H    0.178952
    19  H    0.427833
    20  H    0.406682
    21  H    0.406380
 Sum of Mulliken atomic charges =   0.00000

 Dipole moment (field-independent basis, Debye):
    X=              0.1221    Y=             -6.3372    Z=              1.4624  Tot=              6.5049
 Quadrupole moment (field-independent basis, Debye-Ang):
   XX=            -66.8969   YY=            -59.5951   ZZ=            -66.9825
   XY=              3.3077   XZ=             -4.7870   YZ=             -6.0805

 Normal termination of Gaussian 09 at Mon Apr 15 18:50:28 2019.
