 Gaussian 09, Revision C.01,
 Gaussian 09:  EM64L-G09RevC.01 23-Sep-2011

 ------------------------------------------------
 # mpw1pw91/6-31+g** nmr scrf=(pcm,solvent=water)
 ------------------------------------------------

 99/9=1/99;
 -------
 comment
 -------
 Charge =  0 Multiplicity = 1

                         Standard orientation:
 ---------------------------------------------------------------------
 Center     Atomic      Atomic             Coordinates (Angstroms)
 Number     Number       Type             X           Y           Z
 ---------------------------------------------------------------------
      1          6           0       -1.853357   -0.393217    1.027700
      2          6           0       -1.053643   -1.245797    0.028257
      3          6           0       -1.002735    0.838915   -0.726041
      4          6           0        1.015230    0.083402    0.559064
      5          6           0        0.504258    1.054830   -0.517326
      6          6           0        0.438021   -1.335031    0.377318
      7          8           0       -1.220996   -0.478077   -1.178875
      8          8           0       -1.691908    0.951951    0.525384
      9          8           0        1.103899   -2.011975   -0.678094
     10          8           0        2.435420   -0.039170    0.534882
     11          8           0        0.825205    2.401023   -0.180896
     12          1           0       -1.479160   -0.450630    2.054403
     13          1           0       -2.915944   -0.655799    1.015466
     14          1           0       -1.474478   -2.237536   -0.144464
     15          1           0       -1.427060    1.551241   -1.438467
     16          1           0        0.693573    0.468497    1.537434
     17          1           0        1.012557    0.851854   -1.464949
     18          1           0        0.551580   -1.890074    1.322492
     19          1           0        2.034229   -1.728297   -0.613565
     20          1           0        2.797085    0.858799    0.445017
     21          1           0        0.308028    2.623311    0.613591
 ---------------------------------------------------------------------

 SCF Done:  E(RmPW1PW91) =  -610.652338930     A.U. after   12 cycles

      1  C    Isotropic =   129.5148   Anisotropy =    63.2310

      2  C    Isotropic =   117.6203   Anisotropy =    54.1746

      3  C    Isotropic =    93.0729   Anisotropy =    25.3345

      4  C    Isotropic =   122.2576   Anisotropy =    30.2174

      5  C    Isotropic =   119.8284   Anisotropy =    24.2598

      6  C    Isotropic =   124.9508   Anisotropy =    43.0115

      7  O    Isotropic =   237.2374   Anisotropy =    50.2833

      8  O    Isotropic =   273.2025   Anisotropy =    98.2319

      9  O    Isotropic =   309.7812   Anisotropy =    25.1271

     10  O    Isotropic =   308.0154   Anisotropy =    34.6775

     11  O    Isotropic =   302.0206   Anisotropy =    55.2515

     12  H    Isotropic =    27.7712   Anisotropy =     7.2685

     13  H    Isotropic =    27.6485   Anisotropy =    11.6274

     14  H    Isotropic =    26.8847   Anisotropy =     8.3192

     15  H    Isotropic =    26.1877   Anisotropy =     7.5595

     16  H    Isotropic =    27.9603   Anisotropy =     4.3476

     17  H    Isotropic =    28.0941   Anisotropy =     2.7155

     18  H    Isotropic =    27.5756   Anisotropy =     7.1872

     19  H    Isotropic =    28.3581   Anisotropy =    17.4745

     20  H    Isotropic =    29.0306   Anisotropy =    18.4939

     21  H    Isotropic =    30.2226   Anisotropy =    15.7843

 The electronic state is 1-A.
 Alpha  occ. eigenvalues --  -19.27909 -19.27294 -19.27194 -19.27037 -19.25840
 Alpha  occ. eigenvalues --  -10.36074 -10.32127 -10.31761 -10.31676 -10.31327
 Alpha  occ. eigenvalues --  -10.31107  -1.14603  -1.09025  -1.07354  -1.05566
 Alpha  occ. eigenvalues --   -1.04148  -0.82845  -0.81135  -0.70807  -0.68597
 Alpha  occ. eigenvalues --   -0.65206  -0.61361  -0.58137  -0.55272  -0.54372
 Alpha  occ. eigenvalues --   -0.52999  -0.50261  -0.49440  -0.48020  -0.47015
 Alpha  occ. eigenvalues --   -0.44378  -0.43577  -0.42384  -0.40738  -0.39001
 Alpha  occ. eigenvalues --   -0.38762  -0.36886  -0.36185  -0.33709  -0.32023
 Alpha  occ. eigenvalues --   -0.30941  -0.29754  -0.27679
 Alpha virt. eigenvalues --    0.00619   0.01300   0.02054   0.02363   0.04194
 Alpha virt. eigenvalues --    0.04906   0.05041   0.05467   0.05835   0.07736
 Alpha virt. eigenvalues --    0.08596   0.09631   0.09953   0.10238   0.11570

 Mulliken atomic charges:
              1
     1  C   -0.201324
     2  C    0.293265
     3  C   -0.070688
     4  C    0.049928
     5  C   -0.032754
     6  C   -0.113869
     7  O   -0.322327
     8  O   -0.407836
     9  O   -0.559651
    10  O   -0.583802
    11  O   -0.521934
    12  H    0.184525
    13  H    0.183137
    14  H    0.192566
    15  H    0.191025
    16  H    0.183383
    17  H    0.198556
    18  H    0.176046
    19  H    0.389494
    20  H    0.393173
    21  H    0.379087
 Sum of Mulliken atomic charges =   0.00000

 Dipole moment (field-independent basis, Debye):
    X=             -0.5346    Y=              0.5207    Z=              3.4557  Tot=              3.5354
 Quadrupole moment (field-independent basis, Debye-Ang):
   XX=            -63.8860   YY=            -69.2033   ZZ=            -64.2043
   XY=              4.7761   XZ=             -2.3946   YZ=             -3.2639

 Normal termination of Gaussian 09 at Fri Apr 12 12:26:36 2019.
