 Gaussian 09, Revision C.01,
 Gaussian 09:  EM64L-G09RevC.01 23-Sep-2011

 ------------------------------------------------
 # mpw1pw91/6-31+g** nmr scrf=(pcm,solvent=water)
 ------------------------------------------------

 99/9=1/99;
 -------
 comment
 -------
 Charge =  0 Multiplicity = 1

                         Standard orientation:
 ---------------------------------------------------------------------
 Center     Atomic      Atomic             Coordinates (Angstroms)
 Number     Number       Type             X           Y           Z
 ---------------------------------------------------------------------
      1          6           0        1.882299    0.026731    1.056966
      2          6           0        1.273770    1.009327    0.043644
      3          6           0        0.827026   -1.030730   -0.695998
      4          6           0       -1.014257    0.121174    0.552330
      5          6           0       -0.700739   -0.919465   -0.527298
      6          6           0       -0.188072    1.401753    0.353641
      7          8           0        1.307754    0.217078   -1.158535
      8          8           0        1.474867   -1.262386    0.556889
      9          8           0       -0.750478    2.139746   -0.724338
     10          8           0       -2.399561    0.430721    0.597114
     11          8           0       -1.307852   -2.136181   -0.095133
     12          1           0        1.511468    0.162891    2.077920
     13          1           0        2.975937    0.084676    1.060916
     14          1           0        1.888920    1.896657   -0.122911
     15          1           0        1.116003   -1.816556   -1.399935
     16          1           0       -0.705663   -0.321896    1.510265
     17          1           0       -1.122224   -0.589768   -1.485434
     18          1           0       -0.215132    1.993300    1.281628
     19          1           0       -0.234969    2.956981   -0.820028
     20          1           0       -2.849311   -0.429246    0.661553
     21          1           0       -1.443032   -2.701603   -0.871654
 ---------------------------------------------------------------------

 SCF Done:  E(RmPW1PW91) =  -610.647680269     A.U. after   12 cycles

      1  C    Isotropic =   129.6691   Anisotropy =    61.9531

      2  C    Isotropic =   115.1984   Anisotropy =    47.4512

      3  C    Isotropic =    92.1748   Anisotropy =    25.1661

      4  C    Isotropic =   125.3717   Anisotropy =    37.9139

      5  C    Isotropic =   119.6946   Anisotropy =    26.4933

      6  C    Isotropic =   123.5094   Anisotropy =    41.8805

      7  O    Isotropic =   237.6096   Anisotropy =    49.4812

      8  O    Isotropic =   273.2030   Anisotropy =   100.9082

      9  O    Isotropic =   297.1525   Anisotropy =    67.0922

     10  O    Isotropic =   308.9588   Anisotropy =    39.7578

     11  O    Isotropic =   305.3570   Anisotropy =    52.7545

     12  H    Isotropic =    27.7644   Anisotropy =     7.1610

     13  H    Isotropic =    27.7071   Anisotropy =    11.5299

     14  H    Isotropic =    27.2077   Anisotropy =     8.0411

     15  H    Isotropic =    26.2063   Anisotropy =     7.4400

     16  H    Isotropic =    27.7240   Anisotropy =     5.5437

     17  H    Isotropic =    27.7335   Anisotropy =     3.5617

     18  H    Isotropic =    27.3992   Anisotropy =     6.4043

     19  H    Isotropic =    30.3045   Anisotropy =    19.5929

     20  H    Isotropic =    29.1202   Anisotropy =    18.2334

     21  H    Isotropic =    29.5833   Anisotropy =    21.0344

 The electronic state is 1-A.
 Alpha  occ. eigenvalues --  -19.27699 -19.26858 -19.26852 -19.26155 -19.25945
 Alpha  occ. eigenvalues --  -10.35809 -10.32003 -10.31759 -10.31282 -10.31053
 Alpha  occ. eigenvalues --  -10.30895  -1.14303  -1.08266  -1.07075  -1.05380
 Alpha  occ. eigenvalues --   -1.03885  -0.82565  -0.81214  -0.70589  -0.67682
 Alpha  occ. eigenvalues --   -0.65262  -0.60350  -0.57107  -0.56569  -0.54564
 Alpha  occ. eigenvalues --   -0.52081  -0.51011  -0.48659  -0.46693  -0.45947
 Alpha  occ. eigenvalues --   -0.45575  -0.44157  -0.41950  -0.40090  -0.38670
 Alpha  occ. eigenvalues --   -0.37632  -0.36896  -0.35008  -0.33856  -0.31650
 Alpha  occ. eigenvalues --   -0.30699  -0.29192  -0.27460
 Alpha virt. eigenvalues --    0.00546   0.01177   0.01797   0.02414   0.03938
 Alpha virt. eigenvalues --    0.04810   0.04968   0.05638   0.05985   0.07795
 Alpha virt. eigenvalues --    0.08327   0.09697   0.10017   0.10417   0.11373

 Mulliken atomic charges:
              1
     1  C   -0.206606
     2  C    0.246207
     3  C   -0.094221
     4  C   -0.065673
     5  C    0.099756
     6  C   -0.046106
     7  O   -0.317122
     8  O   -0.381305
     9  O   -0.572468
    10  O   -0.554306
    11  O   -0.566376
    12  H    0.181756
    13  H    0.179665
    14  H    0.188536
    15  H    0.184186
    16  H    0.186043
    17  H    0.191441
    18  H    0.179154
    19  H    0.388328
    20  H    0.383801
    21  H    0.395310
 Sum of Mulliken atomic charges =   0.00000

 Dipole moment (field-independent basis, Debye):
    X=              2.2815    Y=              0.6927    Z=              0.2325  Tot=              2.3957
 Quadrupole moment (field-independent basis, Debye-Ang):
   XX=            -67.7860   YY=            -57.3104   ZZ=            -63.1549
   XY=             13.1212   XZ=              4.1267   YZ=              9.1437

 Normal termination of Gaussian 09 at Fri Apr 12 12:42:44 2019.
