 Gaussian 09, Revision C.01,
 Gaussian 09:  EM64L-G09RevC.01 23-Sep-2011

 -----------------------------------------------------------
 # B3LYP/6-31+G** test scrf=(pcm,solvent=water,smd,dovacuum)
 -----------------------------------------------------------

 99/5=1,9=1/99;
 -------
 comment
 -------
 Charge =  0 Multiplicity = 1

                         Standard orientation:
 ---------------------------------------------------------------------
 Center     Atomic      Atomic             Coordinates (Angstroms)
 Number     Number       Type             X           Y           Z
 ---------------------------------------------------------------------
      1          6           0        1.293998   -1.637446   -0.496772
      2          6           0       -0.082272   -1.395967    0.134006
      3          6           0        1.253883    0.249948    0.813333
      4          6           0       -0.966560    0.943042   -0.215871
      5          6           0        0.472053    1.403373    0.112767
      6          6           0       -1.023983   -0.513491   -0.733990
      7          8           0        0.304174   -0.674036    1.338127
      8          8           0        2.057647   -0.490366   -0.086417
      9          8           0       -2.365799   -0.975684   -0.710290
     10          8           0       -1.812182    1.049314    0.939301
     11          8           0        1.193543    1.798702   -1.044263
     12          1           0        1.265180   -1.692609   -1.588894
     13          1           0        1.765356   -2.543294   -0.100401
     14          1           0       -0.593037   -2.308960    0.441778
     15          1           0        1.879794    0.612713    1.631046
     16          1           0       -1.403637    1.615832   -0.959520
     17          1           0        0.382385    2.235046    0.825122
     18          1           0       -0.696234   -0.548678   -1.778087
     19          1           0       -2.768973   -0.515417    0.051733
     20          1           0       -1.364602    0.532111    1.635392
     21          1           0        0.831984    2.653063   -1.330683
 ---------------------------------------------------------------------

 SCF Done:  E(RB3LYP) =  -610.801637986     A.U. after   12 cycles

 The electronic state is 1-A.
 Alpha  occ. eigenvalues --  -19.18727 -19.17597 -19.17271 -19.17228 -19.16523
 Alpha  occ. eigenvalues --  -10.29643 -10.24926 -10.24864 -10.24675 -10.24508
 Alpha  occ. eigenvalues --  -10.23940  -1.11290  -1.05399  -1.04014  -1.02230
 Alpha  occ. eigenvalues --   -1.01107  -0.79165  -0.77495  -0.67765  -0.66302
 Alpha  occ. eigenvalues --   -0.61994  -0.58961  -0.55329  -0.53518  -0.52432
 Alpha  occ. eigenvalues --   -0.50142  -0.47853  -0.47107  -0.46470  -0.43624
 Alpha  occ. eigenvalues --   -0.42484  -0.41519  -0.40628  -0.38014  -0.37796
 Alpha  occ. eigenvalues --   -0.36797  -0.34937  -0.34219  -0.32114  -0.31784
 Alpha  occ. eigenvalues --   -0.28850  -0.26970  -0.26785
 Alpha virt. eigenvalues --    0.00704   0.01085   0.02273   0.02857   0.04368
 Alpha virt. eigenvalues --    0.04546   0.04904   0.05528   0.05739   0.08554
 Alpha virt. eigenvalues --    0.08952   0.09437   0.10052   0.10650   0.11203

 Mulliken atomic charges:
              1
     1  C   -0.227361
     2  C    0.403249
     3  C    0.043019
     4  C    0.051348
     5  C    0.108332
     6  C   -0.088977
     7  O   -0.460683
     8  O   -0.451453
     9  O   -0.614179
    10  O   -0.632224
    11  O   -0.608604
    12  H    0.169145
    13  H    0.166231
    14  H    0.182590
    15  H    0.174896
    16  H    0.170585
    17  H    0.177107
    18  H    0.175682
    19  H    0.409466
    20  H    0.424606
    21  H    0.427226
 Sum of Mulliken atomic charges =   0.00000

 Dipole moment (field-independent basis, Debye):
    X=              0.0332    Y=              1.2341    Z=              0.6281  Tot=              1.3852
 Quadrupole moment (field-independent basis, Debye-Ang):
   XX=            -81.3264   YY=            -55.1333   ZZ=            -64.2563
   XY=             -2.0150   XZ=              0.4077   YZ=             -1.4726

 Normal termination of Gaussian 09 at Mon Apr 15 18:56:15 2019.
