 Gaussian 09, Revision C.01,
 Gaussian 09:  EM64L-G09RevC.01 23-Sep-2011

 -----------------------------------------------------------
 # B3LYP/6-31+G** test scrf=(pcm,solvent=water,smd,dovacuum)
 -----------------------------------------------------------

 99/5=1,9=1/99;
 -------
 comment
 -------
 Charge =  0 Multiplicity = 1

                         Standard orientation:
 ---------------------------------------------------------------------
 Center     Atomic      Atomic             Coordinates (Angstroms)
 Number     Number       Type             X           Y           Z
 ---------------------------------------------------------------------
      1          6           0        1.264437   -1.681735   -0.417574
      2          6           0       -0.110225   -1.391120    0.182815
      3          6           0        1.233611    0.270022    0.825631
      4          6           0       -0.951761    0.958521   -0.250495
      5          6           0        0.482585    1.422152    0.093439
      6          6           0       -1.017797   -0.513545   -0.727584
      7          8           0        0.289270   -0.638523    1.365348
      8          8           0        1.999467   -0.470802   -0.132881
      9          8           0       -2.365656   -0.956101   -0.722361
     10          8           0       -1.820425    1.105094    0.883595
     11          8           0        1.200607    1.850326   -1.049889
     12          1           0        1.252719   -1.847589   -1.497045
     13          1           0        1.752078   -2.525274    0.081314
     14          1           0       -0.645560   -2.279399    0.518881
     15          1           0        1.892048    0.616659    1.623844
     16          1           0       -1.359455    1.615166   -1.022789
     17          1           0        0.385135    2.278836    0.769498
     18          1           0       -0.668141   -0.583813   -1.763391
     19          1           0       -2.778578   -0.470147    0.018359
     20          1           0       -1.394086    0.610812    1.608317
     21          1           0        1.732640    1.079039   -1.324873
 ---------------------------------------------------------------------

 SCF Done:  E(RB3LYP) =  -610.803980427     A.U. after   12 cycles

 The electronic state is 1-A.
 Alpha  occ. eigenvalues --  -19.19031 -19.18349 -19.17273 -19.16865 -19.16561
 Alpha  occ. eigenvalues --  -10.29911 -10.25102 -10.24756 -10.24650 -10.24626
 Alpha  occ. eigenvalues --  -10.24214  -1.11605  -1.05397  -1.04039  -1.02301
 Alpha  occ. eigenvalues --   -1.01229  -0.79355  -0.77381  -0.68016  -0.66266
 Alpha  occ. eigenvalues --   -0.62360  -0.59109  -0.56256  -0.53505  -0.51202
 Alpha  occ. eigenvalues --   -0.49837  -0.48988  -0.48036  -0.45467  -0.43895
 Alpha  occ. eigenvalues --   -0.42065  -0.41288  -0.41028  -0.39375  -0.37191
 Alpha  occ. eigenvalues --   -0.37016  -0.35063  -0.34356  -0.32326  -0.32013
 Alpha  occ. eigenvalues --   -0.29406  -0.27079  -0.26788
 Alpha virt. eigenvalues --    0.00865   0.01234   0.02502   0.02875   0.04284
 Alpha virt. eigenvalues --    0.04612   0.04885   0.05486   0.05634   0.08643
 Alpha virt. eigenvalues --    0.09157   0.09561   0.10097   0.10776   0.10893

 Mulliken atomic charges:
              1
     1  C   -0.221058
     2  C    0.412485
     3  C    0.100996
     4  C    0.122907
     5  C    0.026954
     6  C   -0.160664
     7  O   -0.460273
     8  O   -0.497653
     9  O   -0.611048
    10  O   -0.628923
    11  O   -0.569594
    12  H    0.176576
    13  H    0.170278
    14  H    0.184502
    15  H    0.179329
    16  H    0.172717
    17  H    0.176740
    18  H    0.180252
    19  H    0.409185
    20  H    0.423516
    21  H    0.412774
 Sum of Mulliken atomic charges =   0.00000

 Dipole moment (field-independent basis, Debye):
    X=              1.9367    Y=             -2.7099    Z=              1.0957  Tot=              3.5064
 Quadrupole moment (field-independent basis, Debye-Ang):
   XX=            -75.5275   YY=            -68.2521   ZZ=            -64.2604
   XY=             -3.4567   XZ=             -2.0226   YZ=              3.7727

 Normal termination of Gaussian 09 at Mon Apr 15 19:22:13 2019.
