 Gaussian 09, Revision C.01,
 Gaussian 09:  EM64L-G09RevC.01 23-Sep-2011

 ------------------------------------------------
 # mpw1pw91/6-31+g** nmr scrf=(pcm,solvent=water)
 ------------------------------------------------

 99/9=1/99;
 -------
 comment
 -------
 Charge =  0 Multiplicity = 1

                         Standard orientation:
 ---------------------------------------------------------------------
 Center     Atomic      Atomic             Coordinates (Angstroms)
 Number     Number       Type             X           Y           Z
 ---------------------------------------------------------------------
      1          6           0        1.264437   -1.681735   -0.417574
      2          6           0       -0.110225   -1.391120    0.182815
      3          6           0        1.233611    0.270022    0.825631
      4          6           0       -0.951761    0.958521   -0.250495
      5          6           0        0.482585    1.422152    0.093439
      6          6           0       -1.017797   -0.513545   -0.727584
      7          8           0        0.289270   -0.638523    1.365348
      8          8           0        1.999467   -0.470802   -0.132881
      9          8           0       -2.365656   -0.956101   -0.722361
     10          8           0       -1.820425    1.105094    0.883595
     11          8           0        1.200607    1.850326   -1.049889
     12          1           0        1.252719   -1.847589   -1.497045
     13          1           0        1.752078   -2.525274    0.081314
     14          1           0       -0.645560   -2.279399    0.518881
     15          1           0        1.892048    0.616659    1.623844
     16          1           0       -1.359455    1.615166   -1.022789
     17          1           0        0.385135    2.278836    0.769498
     18          1           0       -0.668141   -0.583813   -1.763391
     19          1           0       -2.778578   -0.470147    0.018359
     20          1           0       -1.394086    0.610812    1.608317
     21          1           0        1.732640    1.079039   -1.324873
 ---------------------------------------------------------------------

 SCF Done:  E(RmPW1PW91) =  -610.647362779     A.U. after   12 cycles

      1  C    Isotropic =   127.5781   Anisotropy =    48.0819

      2  C    Isotropic =   112.2055   Anisotropy =    40.0869

      3  C    Isotropic =    96.8011   Anisotropy =    37.7210

      4  C    Isotropic =   122.8436   Anisotropy =    50.7353

      5  C    Isotropic =   124.3503   Anisotropy =    43.8263

      6  C    Isotropic =   123.1527   Anisotropy =    41.2532

      7  O    Isotropic =   239.6628   Anisotropy =    65.6676

      8  O    Isotropic =   277.4490   Anisotropy =   104.6372

      9  O    Isotropic =   294.3842   Anisotropy =    52.9460

     10  O    Isotropic =   292.6147   Anisotropy =    50.2579

     11  O    Isotropic =   304.8218   Anisotropy =    48.7400

     12  H    Isotropic =    27.7064   Anisotropy =     8.1676

     13  H    Isotropic =    27.7744   Anisotropy =    10.9571

     14  H    Isotropic =    27.0889   Anisotropy =     6.4033

     15  H    Isotropic =    26.0069   Anisotropy =     8.9313

     16  H    Isotropic =    27.8907   Anisotropy =     6.9341

     17  H    Isotropic =    27.6041   Anisotropy =     6.1832

     18  H    Isotropic =    27.8834   Anisotropy =     4.8429

     19  H    Isotropic =    27.5869   Anisotropy =    14.9674

     20  H    Isotropic =    29.3800   Anisotropy =    14.9612

     21  H    Isotropic =    28.6126   Anisotropy =    16.2797

 The electronic state is 1-A.
 Alpha  occ. eigenvalues --  -19.29011 -19.28335 -19.26967 -19.26186 -19.25871
 Alpha  occ. eigenvalues --  -10.36831 -10.32207 -10.31608 -10.31591 -10.31553
 Alpha  occ. eigenvalues --  -10.31316  -1.15305  -1.08760  -1.07211  -1.05496
 Alpha  occ. eigenvalues --   -1.04624  -0.82667  -0.80481  -0.70947  -0.69140
 Alpha  occ. eigenvalues --   -0.65118  -0.61693  -0.58675  -0.55962  -0.53390
 Alpha  occ. eigenvalues --   -0.52118  -0.51224  -0.50406  -0.47664  -0.46030
 Alpha  occ. eigenvalues --   -0.44181  -0.43406  -0.42928  -0.41171  -0.39039
 Alpha  occ. eigenvalues --   -0.38816  -0.37043  -0.36039  -0.34089  -0.33697
 Alpha  occ. eigenvalues --   -0.31242  -0.28669  -0.28438
 Alpha virt. eigenvalues --    0.00739   0.01171   0.02285   0.02681   0.04063
 Alpha virt. eigenvalues --    0.04443   0.04669   0.05201   0.05474   0.08473
 Alpha virt. eigenvalues --    0.08991   0.09359   0.09889   0.10436   0.10617

 Mulliken atomic charges:
              1
     1  C   -0.265292
     2  C    0.389687
     3  C   -0.000080
     4  C    0.085714
     5  C   -0.017495
     6  C   -0.274074
     7  O   -0.397995
     8  O   -0.446960
     9  O   -0.536843
    10  O   -0.577834
    11  O   -0.504188
    12  H    0.186813
    13  H    0.186709
    14  H    0.205194
    15  H    0.196957
    16  H    0.193789
    17  H    0.191985
    18  H    0.187376
    19  H    0.391163
    20  H    0.409541
    21  H    0.395833
 Sum of Mulliken atomic charges =   0.00000

 Dipole moment (field-independent basis, Debye):
    X=              1.8353    Y=             -2.5312    Z=              1.0512  Tot=              3.2985
 Quadrupole moment (field-independent basis, Debye-Ang):
   XX=            -73.6263   YY=            -66.9358   ZZ=            -63.5879
   XY=             -3.3203   XZ=             -1.8116   YZ=              3.4584

 Normal termination of Gaussian 09 at Fri Apr 12 12:42:27 2019.
