 Gaussian 09, Revision C.01,
 Gaussian 09:  EM64L-G09RevC.01 23-Sep-2011

 -----------------------------------------------------------
 # B3LYP/6-31+G** test scrf=(pcm,solvent=water,smd,dovacuum)
 -----------------------------------------------------------

 99/5=1,9=1/99;
 -------
 comment
 -------
 Charge =  0 Multiplicity = 1

                         Standard orientation:
 ---------------------------------------------------------------------
 Center     Atomic      Atomic             Coordinates (Angstroms)
 Number     Number       Type             X           Y           Z
 ---------------------------------------------------------------------
      1          6           0       -1.897256   -0.336346    1.016091
      2          6           0       -1.134785   -1.182690   -0.014004
      3          6           0       -0.967932    0.930115   -0.671510
      4          6           0        1.009735    0.028838    0.554361
      5          6           0        0.553367    1.043395   -0.496798
      6          6           0        0.346192   -1.356500    0.348079
      7          8           0       -1.253517   -0.353881   -1.186159
      8          8           0       -1.648761    1.016539    0.582575
      9          8           0        0.992506   -2.053800   -0.704802
     10          8           0        2.435376   -0.080645    0.442028
     11          8           0        0.885878    2.372192   -0.123075
     12          1           0       -1.539288   -0.465409    2.042456
     13          1           0       -2.973208   -0.537828    0.981858
     14          1           0       -1.601362   -2.144370   -0.233878
     15          1           0       -1.359178    1.694409   -1.348176
     16          1           0        0.739034    0.426142    1.538520
     17          1           0        1.009141    0.785054   -1.463867
     18          1           0        0.414783   -1.930224    1.287672
     19          1           0        1.929777   -1.790162   -0.637554
     20          1           0        2.787838   -0.380947    1.295927
     21          1           0        1.844666    2.379221    0.035187
 ---------------------------------------------------------------------

 SCF Done:  E(RB3LYP) =  -610.810634262     A.U. after   12 cycles

 The electronic state is 1-A.
 Alpha  occ. eigenvalues --  -19.18393 -19.17702 -19.17567 -19.17113 -19.16565
 Alpha  occ. eigenvalues --  -10.29506 -10.25166 -10.24771 -10.24661 -10.24455
 Alpha  occ. eigenvalues --  -10.24111  -1.11260  -1.05573  -1.03963  -1.02276
 Alpha  occ. eigenvalues --   -1.01092  -0.79645  -0.78368  -0.67671  -0.66063
 Alpha  occ. eigenvalues --   -0.62308  -0.58239  -0.55243  -0.54349  -0.51484
 Alpha  occ. eigenvalues --   -0.50247  -0.48636  -0.48016  -0.45607  -0.44320
 Alpha  occ. eigenvalues --   -0.43411  -0.41341  -0.40944  -0.39028  -0.36865
 Alpha  occ. eigenvalues --   -0.35955  -0.35452  -0.35098  -0.31237  -0.30567
 Alpha  occ. eigenvalues --   -0.28996  -0.27469  -0.27139
 Alpha virt. eigenvalues --    0.00446   0.01420   0.02150   0.02755   0.04091
 Alpha virt. eigenvalues --    0.05136   0.05646   0.05730   0.05867   0.07901
 Alpha virt. eigenvalues --    0.08597   0.09430   0.10190   0.10479   0.11730

 Mulliken atomic charges:
              1
     1  C   -0.157719
     2  C    0.333688
     3  C    0.004612
     4  C   -0.009912
     5  C    0.134863
     6  C    0.007885
     7  O   -0.409664
     8  O   -0.456318
     9  O   -0.629288
    10  O   -0.669428
    11  O   -0.608599
    12  H    0.177052
    13  H    0.167643
    14  H    0.175964
    15  H    0.171741
    16  H    0.191212
    17  H    0.169921
    18  H    0.162906
    19  H    0.409707
    20  H    0.425882
    21  H    0.407854
 Sum of Mulliken atomic charges =   0.00000

 Dipole moment (field-independent basis, Debye):
    X=              2.5388    Y=             -2.4350    Z=              4.7599  Tot=              5.9187
 Quadrupole moment (field-independent basis, Debye-Ang):
   XX=            -57.3863   YY=            -74.5808   ZZ=            -62.6071
   XY=              4.9042   XZ=              3.5525   YZ=             -9.3352

 Normal termination of Gaussian 09 at Mon Apr 15 19:06:44 2019.
