 Gaussian 09, Revision C.01,
 Gaussian 09:  EM64L-G09RevC.01 23-Sep-2011

 ------------------------------------------------
 # mpw1pw91/6-31+g** nmr scrf=(pcm,solvent=water)
 ------------------------------------------------

 99/9=1/99;
 -------
 comment
 -------
 Charge =  0 Multiplicity = 1

                         Standard orientation:
 ---------------------------------------------------------------------
 Center     Atomic      Atomic             Coordinates (Angstroms)
 Number     Number       Type             X           Y           Z
 ---------------------------------------------------------------------
      1          6           0       -1.877716   -0.039025   -1.068086
      2          6           0       -1.291247    0.993550   -0.097538
      3          6           0       -0.795336   -1.020920    0.712951
      4          6           0        1.023003    0.142094   -0.566263
      5          6           0        0.728623   -0.899684    0.519821
      6          6           0        0.164738    1.410137   -0.373838
      7          8           0       -1.286467    0.243473    1.141455
      8          8           0       -1.455741   -1.302513   -0.517198
      9          8           0        0.622949    2.231635    0.694003
     10          8           0        2.398243    0.493548   -0.593986
     11          8           0        1.337786   -2.114736    0.092296
     12          1           0       -1.505091    0.064095   -2.092010
     13          1           0       -2.971849    0.001359   -1.077478
     14          1           0       -1.921580    1.872139    0.047534
     15          1           0       -1.067630   -1.781207    1.450311
     16          1           0        0.737249   -0.314295   -1.525732
     17          1           0        1.163551   -0.563092    1.471284
     18          1           0        0.224775    2.026590   -1.276860
     19          1           0        0.340218    1.792316    1.515292
     20          1           0        2.879165   -0.347424   -0.677106
     21          1           0        1.474651   -2.678646    0.869925
 ---------------------------------------------------------------------

 SCF Done:  E(RmPW1PW91) =  -610.649894761     A.U. after   12 cycles

      1  C    Isotropic =   129.3934   Anisotropy =    62.3280

      2  C    Isotropic =   115.5891   Anisotropy =    46.9486

      3  C    Isotropic =    92.6429   Anisotropy =    25.7331

      4  C    Isotropic =   124.7482   Anisotropy =    34.8123

      5  C    Isotropic =   119.5632   Anisotropy =    25.7352

      6  C    Isotropic =   123.9759   Anisotropy =    40.3278

      7  O    Isotropic =   240.5812   Anisotropy =    67.3851

      8  O    Isotropic =   274.4226   Anisotropy =   100.4532

      9  O    Isotropic =   303.0648   Anisotropy =    29.3420

     10  O    Isotropic =   307.2174   Anisotropy =    37.3736

     11  O    Isotropic =   304.8308   Anisotropy =    51.6766

     12  H    Isotropic =    27.7129   Anisotropy =     7.3520

     13  H    Isotropic =    27.6074   Anisotropy =    11.4138

     14  H    Isotropic =    27.0303   Anisotropy =     8.5416

     15  H    Isotropic =    26.2316   Anisotropy =     7.5072

     16  H    Isotropic =    27.8266   Anisotropy =     5.2274

     17  H    Isotropic =    27.9539   Anisotropy =     3.5661

     18  H    Isotropic =    27.6515   Anisotropy =     6.7547

     19  H    Isotropic =    29.5523   Anisotropy =    14.4878

     20  H    Isotropic =    29.1429   Anisotropy =    18.2832

     21  H    Isotropic =    29.5644   Anisotropy =    21.0242

 The electronic state is 1-A.
 Alpha  occ. eigenvalues --  -19.28425 -19.27128 -19.27006 -19.26142 -19.26062
 Alpha  occ. eigenvalues --  -10.36171 -10.32209 -10.31701 -10.31392 -10.31279
 Alpha  occ. eigenvalues --  -10.31096  -1.14642  -1.08338  -1.07275  -1.05557
 Alpha  occ. eigenvalues --   -1.04129  -0.82647  -0.81304  -0.70953  -0.67949
 Alpha  occ. eigenvalues --   -0.65609  -0.60570  -0.57745  -0.56740  -0.54724
 Alpha  occ. eigenvalues --   -0.51492  -0.50250  -0.49216  -0.47991  -0.46975
 Alpha  occ. eigenvalues --   -0.44991  -0.43866  -0.41541  -0.40212  -0.38952
 Alpha  occ. eigenvalues --   -0.38493  -0.37409  -0.35663  -0.33638  -0.31805
 Alpha  occ. eigenvalues --   -0.30719  -0.29669  -0.27780
 Alpha virt. eigenvalues --    0.00629   0.01277   0.01920   0.02335   0.03683
 Alpha virt. eigenvalues --    0.04812   0.05431   0.05454   0.05895   0.07803
 Alpha virt. eigenvalues --    0.08207   0.09781   0.09946   0.10458   0.11261

 Mulliken atomic charges:
              1
     1  C   -0.195470
     2  C    0.279681
     3  C   -0.078164
     4  C   -0.046339
     5  C    0.033581
     6  C   -0.102400
     7  O   -0.369284
     8  O   -0.375601
     9  O   -0.517951
    10  O   -0.537932
    11  O   -0.564105
    12  H    0.184077
    13  H    0.182253
    14  H    0.198871
    15  H    0.188252
    16  H    0.184518
    17  H    0.190840
    18  H    0.186063
    19  H    0.378894
    20  H    0.385018
    21  H    0.395198
 Sum of Mulliken atomic charges =   0.00000

 Dipole moment (field-independent basis, Debye):
    X=             -1.7965    Y=             -2.0030    Z=              0.7629  Tot=              2.7966
 Quadrupole moment (field-independent basis, Debye-Ang):
   XX=            -66.2295   YY=            -70.2221   ZZ=            -58.7494
   XY=            -12.3008   XZ=              5.1747   YZ=             -9.2601

 Normal termination of Gaussian 09 at Fri Apr 12 12:37:11 2019.
