 Gaussian 09, Revision C.01,
 Gaussian 09:  EM64L-G09RevC.01 23-Sep-2011

 -----------------------------------------------------------
 # B3LYP/6-31+G** test scrf=(pcm,solvent=water,smd,dovacuum)
 -----------------------------------------------------------

 99/5=1,9=1/99;
 -------
 comment
 -------
 Charge =  0 Multiplicity = 1

                         Standard orientation:
 ---------------------------------------------------------------------
 Center     Atomic      Atomic             Coordinates (Angstroms)
 Number     Number       Type             X           Y           Z
 ---------------------------------------------------------------------
      1          6           0        1.381351   -1.598849   -0.444707
      2          6           0        0.000608   -1.415884    0.191992
      3          6           0        1.221586    0.318964    0.838562
      4          6           0       -0.995919    0.886807   -0.282076
      5          6           0        0.397363    1.427299    0.122656
      6          6           0       -0.987576   -0.608915   -0.695918
      7          8           0        0.365205   -0.661069    1.371433
      8          8           0        2.038290   -0.349484   -0.142431
      9          8           0       -2.304773   -1.129602   -0.636033
     10          8           0       -1.905886    0.986555    0.827549
     11          8           0        1.113558    1.944040   -0.987509
     12          1           0        1.359772   -1.741521   -1.527794
     13          1           0        1.933368   -2.420468    0.023612
     14          1           0       -0.462125   -2.348216    0.517796
     15          1           0        1.864554    0.707650    1.630683
     16          1           0       -1.362100    1.486960   -1.121436
     17          1           0        0.224480    2.252676    0.821724
     18          1           0       -0.667664   -0.686088   -1.740828
     19          1           0       -2.715990   -0.644691    0.107047
     20          1           0       -2.419003    1.802200    0.722968
     21          1           0        1.689073    1.211440   -1.280906
 ---------------------------------------------------------------------

 SCF Done:  E(RB3LYP) =  -610.802318221     A.U. after   12 cycles

 The electronic state is 1-A.
 Alpha  occ. eigenvalues --  -19.18493 -19.18075 -19.17344 -19.16701 -19.16387
 Alpha  occ. eigenvalues --  -10.29614 -10.24817 -10.24740 -10.24551 -10.24491
 Alpha  occ. eigenvalues --  -10.23998  -1.11378  -1.05301  -1.03878  -1.02077
 Alpha  occ. eigenvalues --   -1.01082  -0.79112  -0.77407  -0.67759  -0.65935
 Alpha  occ. eigenvalues --   -0.62306  -0.58270  -0.55597  -0.54442  -0.51561
 Alpha  occ. eigenvalues --   -0.50301  -0.49024  -0.46123  -0.45404  -0.44638
 Alpha  occ. eigenvalues --   -0.42685  -0.41024  -0.40153  -0.38949  -0.37021
 Alpha  occ. eigenvalues --   -0.35875  -0.35006  -0.34372  -0.32257  -0.31877
 Alpha  occ. eigenvalues --   -0.29232  -0.27281  -0.26208
 Alpha virt. eigenvalues --    0.00658   0.01186   0.02506   0.02809   0.04503
 Alpha virt. eigenvalues --    0.04627   0.04736   0.05144   0.05996   0.08322
 Alpha virt. eigenvalues --    0.08943   0.09610   0.10187   0.10898   0.11325

 Mulliken atomic charges:
              1
     1  C   -0.213934
     2  C    0.388801
     3  C    0.101441
     4  C    0.083959
     5  C    0.081672
     6  C   -0.117984
     7  O   -0.419381
     8  O   -0.502403
     9  O   -0.621678
    10  O   -0.673861
    11  O   -0.575409
    12  H    0.173484
    13  H    0.167422
    14  H    0.178771
    15  H    0.175126
    16  H    0.174954
    17  H    0.169983
    18  H    0.177677
    19  H    0.406899
    20  H    0.431991
    21  H    0.412472
 Sum of Mulliken atomic charges =   0.00000

 Dipole moment (field-independent basis, Debye):
    X=             -0.2410    Y=              0.3107    Z=             -0.6835  Tot=              0.7885
 Quadrupole moment (field-independent basis, Debye-Ang):
   XX=            -67.7957   YY=            -62.7893   ZZ=            -68.2439
   XY=            -12.3187   XZ=             -1.5560   YZ=              5.2138

 Normal termination of Gaussian 09 at Mon Apr 15 19:02:17 2019.
