 Gaussian 09, Revision C.01,
 Gaussian 09:  EM64L-G09RevC.01 23-Sep-2011

 -----------------------------------------------------------
 # B3LYP/6-31+G** test scrf=(pcm,solvent=water,smd,dovacuum)
 -----------------------------------------------------------

 99/5=1,9=1/99;
 -------
 comment
 -------
 Charge =  0 Multiplicity = 1

                         Standard orientation:
 ---------------------------------------------------------------------
 Center     Atomic      Atomic             Coordinates (Angstroms)
 Number     Number       Type             X           Y           Z
 ---------------------------------------------------------------------
      1          6           0        1.894457   -0.265947   -1.029100
      2          6           0        1.130660   -1.175379   -0.058813
      3          6           0        0.937234    0.909290    0.709724
      4          6           0       -1.022751    0.037421   -0.591251
      5          6           0       -0.577721    1.030394    0.498592
      6          6           0       -0.355593   -1.343791   -0.397660
      7          8           0        1.207040   -0.410544    1.166680
      8          8           0        1.653704    1.057536   -0.512610
      9          8           0       -1.025679   -2.055997    0.647972
     10          8           0       -2.438749   -0.085334   -0.624406
     11          8           0       -0.900945    2.367911    0.151719
     12          1           0        1.536234   -0.333018   -2.061273
     13          1           0        2.969270   -0.473224   -1.006597
     14          1           0        1.609341   -2.139925    0.117777
     15          1           0        1.315100    1.629625    1.439579
     16          1           0       -0.726209    0.457528   -1.557612
     17          1           0       -1.056640    0.757196    1.452304
     18          1           0       -0.484044   -1.945520   -1.302748
     19          1           0       -0.665416   -1.717959    1.487864
     20          1           0       -2.647714   -0.745954    0.063317
     21          1           0       -1.850612    2.370734   -0.056409
 ---------------------------------------------------------------------

 SCF Done:  E(RB3LYP) =  -610.811701648     A.U. after   12 cycles

 The electronic state is 1-A.
 Alpha  occ. eigenvalues --  -19.18761 -19.17728 -19.17448 -19.17097 -19.16884
 Alpha  occ. eigenvalues --  -10.29643 -10.25423 -10.24999 -10.24394 -10.24323
 Alpha  occ. eigenvalues --  -10.24287  -1.11361  -1.05468  -1.04149  -1.02351
 Alpha  occ. eigenvalues --   -1.01187  -0.79726  -0.78063  -0.68045  -0.65813
 Alpha  occ. eigenvalues --   -0.62815  -0.59032  -0.55717  -0.52659  -0.52606
 Alpha  occ. eigenvalues --   -0.50254  -0.48259  -0.47512  -0.45647  -0.44702
 Alpha  occ. eigenvalues --   -0.43200  -0.42297  -0.39679  -0.38824  -0.37960
 Alpha  occ. eigenvalues --   -0.36779  -0.35269  -0.34345  -0.32039  -0.31580
 Alpha  occ. eigenvalues --   -0.28625  -0.27695  -0.26807
 Alpha virt. eigenvalues --    0.00806   0.01447   0.02292   0.02414   0.04043
 Alpha virt. eigenvalues --    0.05021   0.05578   0.05765   0.06069   0.07841
 Alpha virt. eigenvalues --    0.08581   0.09621   0.10335   0.10600   0.11238

 Mulliken atomic charges:
              1
     1  C   -0.157779
     2  C    0.314918
     3  C    0.008760
     4  C   -0.031175
     5  C    0.191304
     6  C   -0.066980
     7  O   -0.430858
     8  O   -0.449478
     9  O   -0.619437
    10  O   -0.617271
    11  O   -0.609087
    12  H    0.179354
    13  H    0.169837
    14  H    0.183193
    15  H    0.173451
    16  H    0.187475
    17  H    0.170296
    18  H    0.179064
    19  H    0.409980
    20  H    0.406597
    21  H    0.407836
 Sum of Mulliken atomic charges =   0.00000

 Dipole moment (field-independent basis, Debye):
    X=              0.8791    Y=             -3.1374    Z=              0.3074  Tot=              3.2727
 Quadrupole moment (field-independent basis, Debye-Ang):
   XX=            -67.1649   YY=            -74.1424   ZZ=            -61.5668
   XY=             -7.7491   XZ=             -6.2328   YZ=              4.3666

 Normal termination of Gaussian 09 at Mon Apr 15 19:07:22 2019.
