 Gaussian 09, Revision C.01,
 Gaussian 09:  EM64L-G09RevC.01 23-Sep-2011

 ------------------------------------------------
 # mpw1pw91/6-31+g** nmr scrf=(pcm,solvent=water)
 ------------------------------------------------

 99/9=1/99;
 -------
 comment
 -------
 Charge =  0 Multiplicity = 1

                         Standard orientation:
 ---------------------------------------------------------------------
 Center     Atomic      Atomic             Coordinates (Angstroms)
 Number     Number       Type             X           Y           Z
 ---------------------------------------------------------------------
      1          6           0       -1.882281   -0.391417    1.014242
      2          6           0       -1.078038   -1.219784   -0.000250
      3          6           0       -1.000015    0.890297   -0.687729
      4          6           0        1.007138    0.086163    0.573745
      5          6           0        0.513834    1.065353   -0.504271
      6          6           0        0.413850   -1.322630    0.364840
      7          8           0       -1.225655   -0.414522   -1.185015
      8          8           0       -1.694885    0.963864    0.559868
      9          8           0        1.167722   -1.914071   -0.697498
     10          8           0        2.427147    0.045287    0.624218
     11          8           0        0.799202    2.410271   -0.147365
     12          1           0       -1.523249   -0.487793    2.044023
     13          1           0       -2.947538   -0.643550    0.979406
     14          1           0       -1.506332   -2.202649   -0.206229
     15          1           0       -1.422195    1.624696   -1.378982
     16          1           0        0.675688    0.477066    1.540417
     17          1           0        0.984499    0.811847   -1.466410
     18          1           0        0.531522   -1.906952    1.286742
     19          1           0        1.142482   -2.878026   -0.595443
     20          1           0        2.680472   -0.605613   -0.057445
     21          1           0        1.749482    2.436438    0.056786
 ---------------------------------------------------------------------

 SCF Done:  E(RmPW1PW91) =  -610.651707383     A.U. after   12 cycles

      1  C    Isotropic =   129.6302   Anisotropy =    62.2168

      2  C    Isotropic =   115.9321   Anisotropy =    48.8830

      3  C    Isotropic =    93.4212   Anisotropy =    28.4131

      4  C    Isotropic =   123.8965   Anisotropy =    35.5449

      5  C    Isotropic =   119.2165   Anisotropy =    24.3805

      6  C    Isotropic =   123.2214   Anisotropy =    39.7753

      7  O    Isotropic =   238.4894   Anisotropy =    56.9054

      8  O    Isotropic =   272.9490   Anisotropy =   103.6235

      9  O    Isotropic =   305.4798   Anisotropy =    52.4930

     10  O    Isotropic =   310.2354   Anisotropy =    26.6072

     11  O    Isotropic =   304.0614   Anisotropy =    34.8345

     12  H    Isotropic =    27.7610   Anisotropy =     7.2672

     13  H    Isotropic =    27.6853   Anisotropy =    11.5471

     14  H    Isotropic =    27.0135   Anisotropy =     8.0742

     15  H    Isotropic =    26.0890   Anisotropy =     7.5304

     16  H    Isotropic =    27.9407   Anisotropy =     4.2354

     17  H    Isotropic =    27.9571   Anisotropy =     3.3433

     18  H    Isotropic =    27.6053   Anisotropy =     6.4996

     19  H    Isotropic =    29.6163   Anisotropy =    21.6969

     20  H    Isotropic =    28.7196   Anisotropy =    16.4309

     21  H    Isotropic =    29.2473   Anisotropy =    17.9745

 The electronic state is 1-A.
 Alpha  occ. eigenvalues --  -19.27729 -19.27213 -19.26872 -19.26223 -19.26188
 Alpha  occ. eigenvalues --  -10.35912 -10.32071 -10.32010 -10.31238 -10.30918
 Alpha  occ. eigenvalues --  -10.30784  -1.14341  -1.08821  -1.07126  -1.05339
 Alpha  occ. eigenvalues --   -1.03955  -0.82718  -0.81033  -0.70496  -0.68144
 Alpha  occ. eigenvalues --   -0.64824  -0.61771  -0.57244  -0.55899  -0.54250
 Alpha  occ. eigenvalues --   -0.52103  -0.51173  -0.48609  -0.47224  -0.46502
 Alpha  occ. eigenvalues --   -0.44964  -0.44115  -0.42497  -0.39444  -0.39269
 Alpha  occ. eigenvalues --   -0.38014  -0.36940  -0.35824  -0.33320  -0.32968
 Alpha  occ. eigenvalues --   -0.29790  -0.29102  -0.28093
 Alpha virt. eigenvalues --    0.00432   0.01361   0.01896   0.02503   0.04061
 Alpha virt. eigenvalues --    0.04954   0.05219   0.05500   0.05915   0.07740
 Alpha virt. eigenvalues --    0.08557   0.09237   0.10162   0.10420   0.11497

 Mulliken atomic charges:
              1
     1  C   -0.205676
     2  C    0.315493
     3  C   -0.088233
     4  C   -0.138055
     5  C    0.149656
     6  C   -0.099424
     7  O   -0.326340
     8  O   -0.379012
     9  O   -0.618685
    10  O   -0.561868
    11  O   -0.534475
    12  H    0.182474
    13  H    0.180254
    14  H    0.189930
    15  H    0.184714
    16  H    0.201873
    17  H    0.175872
    18  H    0.191973
    19  H    0.406281
    20  H    0.389508
    21  H    0.383742
 Sum of Mulliken atomic charges =   0.00000

 Dipole moment (field-independent basis, Debye):
    X=              0.0635    Y=             -5.7891    Z=              1.2490  Tot=              5.9226
 Quadrupole moment (field-independent basis, Debye-Ang):
   XX=            -65.9100   YY=            -59.2281   ZZ=            -66.3422
   XY=              2.9213   XZ=             -4.3975   YZ=             -5.4006

 Normal termination of Gaussian 09 at Fri Apr 12 12:34:04 2019.
