 Gaussian 09, Revision C.01,
 Gaussian 09:  EM64L-G09RevC.01 23-Sep-2011

 -----------------------------------------------------------
 # B3LYP/6-31+G** test scrf=(pcm,solvent=water,smd,dovacuum)
 -----------------------------------------------------------

 99/5=1,9=1/99;
 -------
 comment
 -------
 Charge =  0 Multiplicity = 1

                         Standard orientation:
 ---------------------------------------------------------------------
 Center     Atomic      Atomic             Coordinates (Angstroms)
 Number     Number       Type             X           Y           Z
 ---------------------------------------------------------------------
      1          6           0       -1.835096   -0.199528    1.075556
      2          6           0       -1.132165   -1.153797    0.094010
      3          6           0       -0.936188    0.885871   -0.748771
      4          6           0        1.039638    0.009654    0.533064
      5          6           0        0.585357    0.989986   -0.562777
      6          6           0        0.370397   -1.366050    0.383435
      7          8           0       -1.272195   -0.425879   -1.141023
      8          8           0       -1.591917    1.106306    0.507865
      9          8           0        0.997130   -2.059612   -0.687633
     10          8           0        2.451821   -0.130363    0.561413
     11          8           0        0.996847    2.317513   -0.245092
     12          1           0       -1.436531   -0.241248    2.093791
     13          1           0       -2.914037   -0.382137    1.103058
     14          1           0       -1.647429   -2.110132   -0.021231
     15          1           0       -1.315831    1.600969   -1.483142
     16          1           0        0.694428    0.424623    1.492676
     17          1           0        1.073517    0.738585   -1.508906
     18          1           0        0.484059   -1.924417    1.325288
     19          1           0        0.577761   -2.932547   -0.758349
     20          1           0        2.802046    0.775454    0.613560
     21          1           0        0.476877    2.590300    0.531923
 ---------------------------------------------------------------------

 SCF Done:  E(RB3LYP) =  -610.809520218     A.U. after   12 cycles

 The electronic state is 1-A.
 Alpha  occ. eigenvalues --  -19.18491 -19.17671 -19.17350 -19.16925 -19.16903
 Alpha  occ. eigenvalues --  -10.29432 -10.25224 -10.25001 -10.24581 -10.24363
 Alpha  occ. eigenvalues --  -10.24194  -1.11294  -1.05173  -1.04048  -1.02489
 Alpha  occ. eigenvalues --   -1.01109  -0.79628  -0.78123  -0.68072  -0.65269
 Alpha  occ. eigenvalues --   -0.62659  -0.58928  -0.55538  -0.53845  -0.52242
 Alpha  occ. eigenvalues --   -0.50233  -0.48676  -0.46385  -0.45189  -0.44499
 Alpha  occ. eigenvalues --   -0.43207  -0.41833  -0.41050  -0.38318  -0.37208
 Alpha  occ. eigenvalues --   -0.36998  -0.35396  -0.34330  -0.31506  -0.30526
 Alpha  occ. eigenvalues --   -0.29540  -0.27975  -0.26093
 Alpha virt. eigenvalues --    0.00628   0.01419   0.02048   0.02588   0.04351
 Alpha virt. eigenvalues --    0.04603   0.05222   0.05754   0.06129   0.07882
 Alpha virt. eigenvalues --    0.08743   0.09797   0.10276   0.10618   0.11474

 Mulliken atomic charges:
              1
     1  C   -0.165609
     2  C    0.272460
     3  C    0.015498
     4  C    0.031028
     5  C    0.111023
     6  C    0.022807
     7  O   -0.395368
     8  O   -0.473932
     9  O   -0.647870
    10  O   -0.632488
    11  O   -0.592846
    12  H    0.178654
    13  H    0.168558
    14  H    0.176760
    15  H    0.174232
    16  H    0.178630
    17  H    0.182060
    18  H    0.168261
    19  H    0.417942
    20  H    0.409313
    21  H    0.400887
 Sum of Mulliken atomic charges =   0.00000

 Dipole moment (field-independent basis, Debye):
    X=             -3.6108    Y=             -1.8687    Z=              3.9352  Tot=              5.6582
 Quadrupole moment (field-independent basis, Debye-Ang):
   XX=            -73.6084   YY=            -58.8632   ZZ=            -63.8574
   XY=              8.4403   XZ=             -0.5150   YZ=             -0.8017

 Normal termination of Gaussian 09 at Mon Apr 15 18:57:07 2019.
