 Gaussian 09, Revision C.01,
 Gaussian 09:  EM64L-G09RevC.01 23-Sep-2011

 ------------------------------------------------
 # mpw1pw91/6-31+g** nmr scrf=(pcm,solvent=water)
 ------------------------------------------------

 99/9=1/99;
 -------
 comment
 -------
 Charge =  0 Multiplicity = 1

                         Standard orientation:
 ---------------------------------------------------------------------
 Center     Atomic      Atomic             Coordinates (Angstroms)
 Number     Number       Type             X           Y           Z
 ---------------------------------------------------------------------
      1          6           0        1.293998   -1.637446   -0.496772
      2          6           0       -0.082272   -1.395967    0.134006
      3          6           0        1.253883    0.249948    0.813333
      4          6           0       -0.966560    0.943042   -0.215871
      5          6           0        0.472053    1.403373    0.112767
      6          6           0       -1.023983   -0.513491   -0.733990
      7          8           0        0.304174   -0.674036    1.338127
      8          8           0        2.057647   -0.490366   -0.086417
      9          8           0       -2.365799   -0.975684   -0.710290
     10          8           0       -1.812182    1.049314    0.939301
     11          8           0        1.193543    1.798702   -1.044263
     12          1           0        1.265180   -1.692609   -1.588894
     13          1           0        1.765356   -2.543294   -0.100401
     14          1           0       -0.593037   -2.308960    0.441778
     15          1           0        1.879794    0.612713    1.631046
     16          1           0       -1.403637    1.615832   -0.959520
     17          1           0        0.382385    2.235046    0.825122
     18          1           0       -0.696234   -0.548678   -1.778087
     19          1           0       -2.768973   -0.515417    0.051733
     20          1           0       -1.364602    0.532111    1.635392
     21          1           0        0.831984    2.653063   -1.330683
 ---------------------------------------------------------------------

 SCF Done:  E(RmPW1PW91) =  -610.642713663     A.U. after   12 cycles

      1  C    Isotropic =   127.3808   Anisotropy =    50.8930

      2  C    Isotropic =   112.6674   Anisotropy =    41.2175

      3  C    Isotropic =    96.3418   Anisotropy =    36.9840

      4  C    Isotropic =   122.8817   Anisotropy =    51.1537

      5  C    Isotropic =   123.0235   Anisotropy =    42.5145

      6  C    Isotropic =   121.7041   Anisotropy =    41.5610

      7  O    Isotropic =   234.7363   Anisotropy =    62.1100

      8  O    Isotropic =   277.2379   Anisotropy =   114.1301

      9  O    Isotropic =   293.7938   Anisotropy =    53.9949

     10  O    Isotropic =   292.6778   Anisotropy =    52.1772

     11  O    Isotropic =   301.2213   Anisotropy =    76.8678

     12  H    Isotropic =    27.7480   Anisotropy =     7.8188

     13  H    Isotropic =    27.6767   Anisotropy =    10.6391

     14  H    Isotropic =    27.0966   Anisotropy =     6.3829

     15  H    Isotropic =    25.9493   Anisotropy =     8.5898

     16  H    Isotropic =    28.0136   Anisotropy =     7.0513

     17  H    Isotropic =    27.4105   Anisotropy =     5.3912

     18  H    Isotropic =    27.8154   Anisotropy =     4.8684

     19  H    Isotropic =    27.5971   Anisotropy =    14.9258

     20  H    Isotropic =    29.2166   Anisotropy =    15.2646

     21  H    Isotropic =    30.0515   Anisotropy =    20.3843

 The electronic state is 1-A.
 Alpha  occ. eigenvalues --  -19.28539 -19.26953 -19.26903 -19.26733 -19.25770
 Alpha  occ. eigenvalues --  -10.36357 -10.31863 -10.31709 -10.31629 -10.31382
 Alpha  occ. eigenvalues --  -10.30738  -1.14663  -1.08703  -1.07265  -1.05357
 Alpha  occ. eigenvalues --   -1.04174  -0.82253  -0.80558  -0.70566  -0.69029
 Alpha  occ. eigenvalues --   -0.64572  -0.61401  -0.57645  -0.55765  -0.54662
 Alpha  occ. eigenvalues --   -0.52320  -0.50002  -0.49201  -0.48517  -0.45605
 Alpha  occ. eigenvalues --   -0.44417  -0.43390  -0.42634  -0.39832  -0.39335
 Alpha  occ. eigenvalues --   -0.38333  -0.36723  -0.35848  -0.33741  -0.33447
 Alpha  occ. eigenvalues --   -0.30365  -0.28469  -0.28280
 Alpha virt. eigenvalues --    0.00586   0.01017   0.02083   0.02656   0.04181
 Alpha virt. eigenvalues --    0.04310   0.04841   0.05319   0.05531   0.08384
 Alpha virt. eigenvalues --    0.08802   0.09208   0.09894   0.10411   0.10943

 Mulliken atomic charges:
              1
     1  C   -0.284240
     2  C    0.383252
     3  C   -0.056866
     4  C   -0.010954
     5  C    0.066342
     6  C   -0.167486
     7  O   -0.401217
     8  O   -0.371178
     9  O   -0.541455
    10  O   -0.580488
    11  O   -0.540511
    12  H    0.173777
    13  H    0.179312
    14  H    0.201752
    15  H    0.189493
    16  H    0.185532
    17  H    0.191175
    18  H    0.180673
    19  H    0.391045
    20  H    0.411283
    21  H    0.400758
 Sum of Mulliken atomic charges =   0.00000

 Dipole moment (field-independent basis, Debye):
    X=              0.1856    Y=              1.0988    Z=              0.5560  Tot=              1.2454
 Quadrupole moment (field-independent basis, Debye-Ang):
   XX=            -78.9648   YY=            -55.2324   ZZ=            -63.6664
   XY=             -1.8697   XZ=              0.3219   YZ=             -1.4109

 Normal termination of Gaussian 09 at Fri Apr 12 12:47:35 2019.
