 Gaussian 09, Revision C.01,
 Gaussian 09:  EM64L-G09RevC.01 23-Sep-2011

 ------------------------------------------------
 # mpw1pw91/6-31+g** nmr scrf=(pcm,solvent=water)
 ------------------------------------------------

 99/9=1/99;
 -------
 comment
 -------
 Charge =  0 Multiplicity = 1

                         Standard orientation:
 ---------------------------------------------------------------------
 Center     Atomic      Atomic             Coordinates (Angstroms)
 Number     Number       Type             X           Y           Z
 ---------------------------------------------------------------------
      1          6           0        1.894457   -0.265947   -1.029100
      2          6           0        1.130660   -1.175379   -0.058813
      3          6           0        0.937234    0.909290    0.709724
      4          6           0       -1.022751    0.037421   -0.591251
      5          6           0       -0.577721    1.030394    0.498592
      6          6           0       -0.355593   -1.343791   -0.397660
      7          8           0        1.207040   -0.410544    1.166680
      8          8           0        1.653704    1.057536   -0.512610
      9          8           0       -1.025679   -2.055997    0.647972
     10          8           0       -2.438749   -0.085334   -0.624406
     11          8           0       -0.900945    2.367911    0.151719
     12          1           0        1.536234   -0.333018   -2.061273
     13          1           0        2.969270   -0.473224   -1.006597
     14          1           0        1.609341   -2.139925    0.117777
     15          1           0        1.315100    1.629625    1.439579
     16          1           0       -0.726209    0.457528   -1.557612
     17          1           0       -1.056640    0.757196    1.452304
     18          1           0       -0.484044   -1.945520   -1.302748
     19          1           0       -0.665416   -1.717959    1.487864
     20          1           0       -2.647714   -0.745954    0.063317
     21          1           0       -1.850612    2.370734   -0.056409
 ---------------------------------------------------------------------

 SCF Done:  E(RmPW1PW91) =  -610.653173184     A.U. after   12 cycles

      1  C    Isotropic =   129.2977   Anisotropy =    63.0452

      2  C    Isotropic =   116.7582   Anisotropy =    49.2982

      3  C    Isotropic =    93.6066   Anisotropy =    29.2293

      4  C    Isotropic =   123.1627   Anisotropy =    31.5809

      5  C    Isotropic =   119.1158   Anisotropy =    23.5448

      6  C    Isotropic =   123.3333   Anisotropy =    38.1373

      7  O    Isotropic =   241.6490   Anisotropy =    66.5718

      8  O    Isotropic =   274.5806   Anisotropy =   102.9666

      9  O    Isotropic =   305.1387   Anisotropy =    41.7550

     10  O    Isotropic =   308.0706   Anisotropy =    27.9868

     11  O    Isotropic =   305.1312   Anisotropy =    37.5907

     12  H    Isotropic =    27.6744   Anisotropy =     7.4279

     13  H    Isotropic =    27.5646   Anisotropy =    11.4405

     14  H    Isotropic =    26.9188   Anisotropy =     8.5293

     15  H    Isotropic =    26.1008   Anisotropy =     7.5752

     16  H    Isotropic =    28.0419   Anisotropy =     3.8976

     17  H    Isotropic =    28.1174   Anisotropy =     3.4764

     18  H    Isotropic =    27.8170   Anisotropy =     7.1449

     19  H    Isotropic =    29.6849   Anisotropy =    15.2539

     20  H    Isotropic =    28.8858   Anisotropy =    16.0086

     21  H    Isotropic =    29.2972   Anisotropy =    18.1828

 The electronic state is 1-A.
 Alpha  occ. eigenvalues --  -19.28559 -19.27275 -19.27220 -19.26450 -19.26337
 Alpha  occ. eigenvalues --  -10.36343 -10.32474 -10.32036 -10.31309 -10.31223
 Alpha  occ. eigenvalues --  -10.31183  -1.14803  -1.08888  -1.07411  -1.05567
 Alpha  occ. eigenvalues --   -1.04339  -0.82950  -0.81138  -0.70951  -0.68545
 Alpha  occ. eigenvalues --   -0.65496  -0.61536  -0.58100  -0.55037  -0.54892
 Alpha  occ. eigenvalues --   -0.52476  -0.50451  -0.49651  -0.47792  -0.46849
 Alpha  occ. eigenvalues --   -0.45295  -0.44324  -0.41568  -0.40578  -0.39587
 Alpha  occ. eigenvalues --   -0.38562  -0.37027  -0.36065  -0.33858  -0.33209
 Alpha  occ. eigenvalues --   -0.30368  -0.29232  -0.28337
 Alpha virt. eigenvalues --    0.00715   0.01327   0.02118   0.02222   0.03853
 Alpha virt. eigenvalues --    0.04832   0.05432   0.05499   0.05920   0.07676
 Alpha virt. eigenvalues --    0.08399   0.09415   0.10131   0.10400   0.10971

 Mulliken atomic charges:
              1
     1  C   -0.200352
     2  C    0.281839
     3  C   -0.079784
     4  C   -0.135977
     5  C    0.134608
     6  C   -0.117260
     7  O   -0.368598
     8  O   -0.372253
     9  O   -0.565104
    10  O   -0.542322
    11  O   -0.534818
    12  H    0.185633
    13  H    0.183707
    14  H    0.201739
    15  H    0.189533
    16  H    0.200304
    17  H    0.176554
    18  H    0.195592
    19  H    0.392563
    20  H    0.388954
    21  H    0.385444
 Sum of Mulliken atomic charges =   0.00000

 Dipole moment (field-independent basis, Debye):
    X=              0.9236    Y=             -2.8093    Z=              0.2324  Tot=              2.9664
 Quadrupole moment (field-independent basis, Debye-Ang):
   XX=            -65.9633   YY=            -72.3854   ZZ=            -61.2605
   XY=             -7.0294   XZ=             -5.6476   YZ=              3.9836

 Normal termination of Gaussian 09 at Fri Apr 12 12:31:40 2019.
