 Gaussian 09, Revision C.01,
 Gaussian 09:  EM64L-G09RevC.01 23-Sep-2011

 -----------------------------------------------------------
 # B3LYP/6-31+G** test scrf=(pcm,solvent=water,smd,dovacuum)
 -----------------------------------------------------------

 99/5=1,9=1/99;
 -------
 comment
 -------
 Charge =  0 Multiplicity = 1

                         Standard orientation:
 ---------------------------------------------------------------------
 Center     Atomic      Atomic             Coordinates (Angstroms)
 Number     Number       Type             X           Y           Z
 ---------------------------------------------------------------------
      1          6           0        1.746955   -0.673597   -1.040899
      2          6           0        0.776452   -1.415123   -0.111163
      3          6           0        1.103673    0.602094    0.771641
      4          6           0       -1.024995    0.316854   -0.568436
      5          6           0       -0.303746    1.162078    0.511718
      6          6           0       -0.703626   -1.193300   -0.433884
      7          8           0        1.029420   -0.760511    1.153388
      8          8           0        1.857943    0.634912   -0.443281
      9          8           0       -1.516194   -1.762008    0.599040
     10          8           0       -2.430312    0.509913   -0.549957
     11          8           0       -0.231522    2.536295    0.155055
     12          1           0        1.381447   -0.584373   -2.068516
     13          1           0        2.733120   -1.147818   -1.048496
     14          1           0        1.001819   -2.475901    0.009357
     15          1           0        1.636709    1.166216    1.540740
     16          1           0       -0.675952    0.667492   -1.546805
     17          1           0       -0.873279    1.122629    1.446427
     18          1           0       -0.986226   -1.709002   -1.356859
     19          1           0       -1.076080   -1.549370    1.442530
     20          1           0       -2.757813   -0.140961    0.099946
     21          1           0        0.373295    2.588249   -0.606150
 ---------------------------------------------------------------------

 SCF Done:  E(RB3LYP) =  -610.812281467     A.U. after   12 cycles

 The electronic state is 1-A.
 Alpha  occ. eigenvalues --  -19.18895 -19.17835 -19.17467 -19.17144 -19.16644
 Alpha  occ. eigenvalues --  -10.29516 -10.25446 -10.24980 -10.24450 -10.24350
 Alpha  occ. eigenvalues --  -10.24337  -1.11433  -1.05406  -1.04180  -1.02313
 Alpha  occ. eigenvalues --   -1.01198  -0.79675  -0.77636  -0.68204  -0.65638
 Alpha  occ. eigenvalues --   -0.62958  -0.59516  -0.56024  -0.52921  -0.51324
 Alpha  occ. eigenvalues --   -0.50074  -0.49209  -0.47301  -0.45579  -0.44523
 Alpha  occ. eigenvalues --   -0.42755  -0.41427  -0.40687  -0.39218  -0.37689
 Alpha  occ. eigenvalues --   -0.36218  -0.35008  -0.33842  -0.33388  -0.31656
 Alpha  occ. eigenvalues --   -0.28887  -0.28191  -0.26113
 Alpha virt. eigenvalues --    0.00916   0.01724   0.02086   0.02389   0.04264
 Alpha virt. eigenvalues --    0.04914   0.05322   0.05773   0.06148   0.07746
 Alpha virt. eigenvalues --    0.08734   0.09712   0.10504   0.10678   0.11316

 Mulliken atomic charges:
              1
     1  C   -0.156718
     2  C    0.291795
     3  C    0.011628
     4  C    0.036115
     5  C    0.112747
     6  C   -0.051744
     7  O   -0.421675
     8  O   -0.466271
     9  O   -0.619941
    10  O   -0.614550
    11  O   -0.584885
    12  H    0.179625
    13  H    0.170430
    14  H    0.183736
    15  H    0.175903
    16  H    0.180870
    17  H    0.177142
    18  H    0.179860
    19  H    0.410864
    20  H    0.406058
    21  H    0.399010
 Sum of Mulliken atomic charges =   0.00000

 Dipole moment (field-independent basis, Debye):
    X=              3.2791    Y=             -3.7025    Z=             -1.0016  Tot=              5.0462
 Quadrupole moment (field-independent basis, Debye-Ang):
   XX=            -75.1600   YY=            -72.8290   ZZ=            -59.3807
   XY=              0.7591   XZ=             -6.0394   YZ=              2.4533

 Normal termination of Gaussian 09 at Mon Apr 15 18:56:22 2019.
